<?xml version="1.0"?>
<VTKFile type="UnstructuredGrid">
  <UnstructuredGrid>
    <Piece NumberOfCells="400" NumberOfPoints="882">
      <Points>
        <DataArray Name="Coordinates" NumberOfComponents="3" format="ascii" type="Float64">
          0 0 0
          10 0 0
          20 0 0
          30 0 0
          40 0 0
          50 0 0
          60 0 0
          70 0 0
          80 0 0
          90 0 0
          100 0 0
          110 0 0
          120 0 0
          130 0 0
          140 0 0
          150 0 0
          160 0 0
          170 0 0
          180 0 0
          190 0 0
          200 0 0
          0 10 0
          10 10 0
          20 10 0
          30 10 0
          40 10 0
          50 10 0
          60 10 0
          70 10 0
          80 10 0
          90 10 0
          100 10 0
          110 10 0
          120 10 0
          130 10 0
          140 10 0
          150 10 0
          160 10 0
          170 10 0
          180 10 0
          190 10 0
          200 10 0
          0 20 0
          10 20 0
          20 20 0
          30 20 0
          40 20 0
          50 20 0
          60 20 0
          70 20 0
          80 20 0
          90 20 0
          100 20 0
          110 20 0
          120 20 0
          130 20 0
          140 20 0
          150 20 0
          160 20 0
          170 20 0
          180 20 0
          190 20 0
          200 20 0
          0 30 0
          10 30 0
          20 30 0
          30 30 0
          40 30 0
          50 30 0
          60 30 0
          70 30 0
          80 30 0
          90 30 0
          100 30 0
          110 30 0
          120 30 0
          130 30 0
          140 30 0
          150 30 0
          160 30 0
          170 30 0
          180 30 0
          190 30 0
          200 30 0
          0 40 0
          10 40 0
          20 40 0
          30 40 0
          40 40 0
          50 40 0
          60 40 0
          70 40 0
          80 40 0
          90 40 0
          100 40 0
          110 40 0
          120 40 0
          130 40 0
          140 40 0
          150 40 0
          160 40 0
          170 40 0
          180 40 0
          190 40 0
          200 40 0
          0 50 0
          10 50 0
          20 50 0
          30 50 0
          40 50 0
          50 50 0
          60 50 0
          70 50 0
          80 50 0
          90 50 0
          100 50 0
          110 50 0
          120 50 0
          130 50 0
          140 50 0
          150 50 0
          160 50 0
          170 50 0
          180 50 0
          190 50 0
          200 50 0
          0 60 0
          10 60 0
          20 60 0
          30 60 0
          40 60 0
          50 60 0
          60 60 0
          70 60 0
          80 60 0
          90 60 0
          100 60 0
          110 60 0
          120 60 0
          130 60 0
          140 60 0
          150 60 0
          160 60 0
          170 60 0
          180 60 0
          190 60 0
          200 60 0
          0 70 0
          10 70 0
          20 70 0
          30 70 0
          40 70 0
          50 70 0
          60 70 0
          70 70 0
          80 70 0
          90 70 0
          100 70 0
          110 70 0
          120 70 0
          130 70 0
          140 70 0
          150 70 0
          160 70 0
          170 70 0
          180 70 0
          190 70 0
          200 70 0
          0 80 0
          10 80 0
          20 80 0
          30 80 0
          40 80 0
          50 80 0
          60 80 0
          70 80 0
          80 80 0
          90 80 0
          100 80 0
          110 80 0
          120 80 0
          130 80 0
          140 80 0
          150 80 0
          160 80 0
          170 80 0
          180 80 0
          190 80 0
          200 80 0
          0 90 0
          10 90 0
          20 90 0
          30 90 0
          40 90 0
          50 90 0
          60 90 0
          70 90 0
          80 90 0
          90 90 0
          100 90 0
          110 90 0
          120 90 0
          130 90 0
          140 90 0
          150 90 0
          160 90 0
          170 90 0
          180 90 0
          190 90 0
          200 90 0
          0 100 0
          10 100 0
          20 100 0
          30 100 0
          40 100 0
          50 100 0
          60 100 0
          70 100 0
          80 100 0
          90 100 0
          100 100 0
          110 100 0
          120 100 0
          130 100 0
          140 100 0
          150 100 0
          160 100 0
          170 100 0
          180 100 0
          190 100 0
          200 100 0
          0 110 0
          10 110 0
          20 110 0
          30 110 0
          40 110 0
          50 110 0
          60 110 0
          70 110 0
          80 110 0
          90 110 0
          100 110 0
          110 110 0
          120 110 0
          130 110 0
          140 110 0
          150 110 0
          160 110 0
          170 110 0
          180 110 0
          190 110 0
          200 110 0
          0 120 0
          10 120 0
          20 120 0
          30 120 0
          40 120 0
          50 120 0
          60 120 0
          70 120 0
          80 120 0
          90 120 0
          100 120 0
          110 120 0
          120 120 0
          130 120 0
          140 120 0
          150 120 0
          160 120 0
          170 120 0
          180 120 0
          190 120 0
          200 120 0
          0 130 0
          10 130 0
          20 130 0
          30 130 0
          40 130 0
          50 130 0
          60 130 0
          70 130 0
          80 130 0
          90 130 0
          100 130 0
          110 130 0
          120 130 0
          130 130 0
          140 130 0
          150 130 0
          160 130 0
          170 130 0
          180 130 0
          190 130 0
          200 130 0
          0 140 0
          10 140 0
          20 140 0
          30 140 0
          40 140 0
          50 140 0
          60 140 0
          70 140 0
          80 140 0
          90 140 0
          100 140 0
          110 140 0
          120 140 0
          130 140 0
          140 140 0
          150 140 0
          160 140 0
          170 140 0
          180 140 0
          190 140 0
          200 140 0
          0 150 0
          10 150 0
          20 150 0
          30 150 0
          40 150 0
          50 150 0
          60 150 0
          70 150 0
          80 150 0
          90 150 0
          100 150 0
          110 150 0
          120 150 0
          130 150 0
          140 150 0
          150 150 0
          160 150 0
          170 150 0
          180 150 0
          190 150 0
          200 150 0
          0 160 0
          10 160 0
          20 160 0
          30 160 0
          40 160 0
          50 160 0
          60 160 0
          70 160 0
          80 160 0
          90 160 0
          100 160 0
          110 160 0
          120 160 0
          130 160 0
          140 160 0
          150 160 0
          160 160 0
          170 160 0
          180 160 0
          190 160 0
          200 160 0
          0 170 0
          10 170 0
          20 170 0
          30 170 0
          40 170 0
          50 170 0
          60 170 0
          70 170 0
          80 170 0
          90 170 0
          100 170 0
          110 170 0
          120 170 0
          130 170 0
          140 170 0
          150 170 0
          160 170 0
          170 170 0
          180 170 0
          190 170 0
          200 170 0
          0 180 0
          10 180 0
          20 180 0
          30 180 0
          40 180 0
          50 180 0
          60 180 0
          70 180 0
          80 180 0
          90 180 0
          100 180 0
          110 180 0
          120 180 0
          130 180 0
          140 180 0
          150 180 0
          160 180 0
          170 180 0
          180 180 0
          190 180 0
          200 180 0
          0 190 0
          10 190 0
          20 190 0
          30 190 0
          40 190 0
          50 190 0
          60 190 0
          70 190 0
          80 190 0
          90 190 0
          100 190 0
          110 190 0
          120 190 0
          130 190 0
          140 190 0
          150 190 0
          160 190 0
          170 190 0
          180 190 0
          190 190 0
          200 190 0
          0 200 0
          10 200 0
          20 200 0
          30 200 0
          40 200 0
          50 200 0
          60 200 0
          70 200 0
          80 200 0
          90 200 0
          100 200 0
          110 200 0
          120 200 0
          130 200 0
          140 200 0
          150 200 0
          160 200 0
          170 200 0
          180 200 0
          190 200 0
          200 200 0
          0 0 10
          10 0 10
          20 0 10
          30 0 10
          40 0 10
          50 0 10
          60 0 10
          70 0 10
          80 0 10
          90 0 10
          100 0 10
          110 0 10
          120 0 10
          130 0 10
          140 0 10
          150 0 10
          160 0 10
          170 0 10
          180 0 10
          190 0 10
          200 0 10
          0 10 10
          10 10 10
          20 10 10
          30 10 10
          40 10 10
          50 10 10
          60 10 10
          70 10 10
          80 10 10
          90 10 10
          100 10 10
          110 10 10
          120 10 10
          130 10 10
          140 10 10
          150 10 10
          160 10 10
          170 10 10
          180 10 10
          190 10 10
          200 10 10
          0 20 10
          10 20 10
          20 20 10
          30 20 10
          40 20 10
          50 20 10
          60 20 10
          70 20 10
          80 20 10
          90 20 10
          100 20 10
          110 20 10
          120 20 10
          130 20 10
          140 20 10
          150 20 10
          160 20 10
          170 20 10
          180 20 10
          190 20 10
          200 20 10
          0 30 10
          10 30 10
          20 30 10
          30 30 10
          40 30 10
          50 30 10
          60 30 10
          70 30 10
          80 30 10
          90 30 10
[...]
      <CellData Scalars="saturation">
        <DataArray Name="pressure" NumberOfComponents="1" format="ascii" type="Float64">
          8.74138104334e-05 -5130112838.74 -8273074480.8 -10487783333.4 -12198158273.1 
          -13599233982.8 -14791864888 -15832999299.1 -16756761708.6 -17584290866.1 
          -18328782414.9 -18998295636.4 -19597439263.2 -20128464903.4 -20592039475.5 
          -20987848939.8 -21315124910.7 -21573081858 -21760058656.6 -21858096811.6 
          -5130112838.74 -7177007363.12 -9250188948.72 -11034604504.7 -12545587620.4 
          -13842507957.5 -14975514811 -15980258203.6 -16880905140.4 -17693480321.2 
          -18428328429.3 -19091797582.2 -19687395332.9 -20216615518.9 -20679570701.8 
          -21075521836.1 -21403368083.8 -21662069378.6 -21849773379.1 -21948263319.5 
          -8273074480.8 -9250188948.72 -10562580165.1 -11896546215.7 -13144934896.3 
          -14284433098 -15319558338.6 -16261506699.3 -17121053951.6 -17906585803.1 
          -18623870695.5 -19276364305.1 -19865637704.6 -20391808340.6 -20853953379.1 
          -21250519824 -21579754255.7 -21840101106.9 -22029306942.6 -22128671613.1 
          -10487783333.4 -11034604504.7 -11896546215.7 -12883852140.6 -13889903364.6 
          -14864768773.4 -15788455589.7 -16654752755.4 -17462964128.4 -18214021597.8 
          -18908780881.5 -19547356271.6 -20128944757.9 -20651888423.9 -21113867641.8 
          -21512186609.6 -21844142254.5 -22107403321.5 -22299098176.9 -22399825254.8 
          -12198158273.1 -12545587620.4 -13144934896.3 -13889903364.6 -14701213639.4 
          -15529226261.6 -16345651546.5 -17135144987.8 -17889411048.1 -18603610875 
          -19274332332.5 -19898509482.6 -20472899038.4 -20993889973.7 -21457529391.8 
          -21859710972.5 -22196503470 -22464532313 -22660072616.6 -22762786479.1 
          -13599233982.8 -13842507957.5 -14284433098 -14864768773.4 -15529226261.6 
          -16236911047.2 -16959726310.1 -17679126688.6 -18382818153.8 -19062215647.2 
          -19710709056.6 -20322566449.5 -20892293325.1 -21414315793.7 -21882908215.8 
          -22292326516.3 -22637129837.7 -22912600661.5 -23113881116.6 -23219415423.6 
          -14791864888 -14975514811 -15319558338.6 -15788455589.7 -16345651546.5 
          -16959726310.1 -17606105977.2 -18266390307.7 -18926849085.8 -19576889096.9 
          -20207794896.8 -20811803622.3 -21381486279.8 -21909394148.9 -22387943350.4 
          -22809530977.7 -23166886165.7 -23453575153.9 -23663237599.2 -23772726878.5 
          -15832999299.1 -15980258203.6 -16261506699.3 -16654752755.4 -17135144987.8 
          -17679126688.6 -18266390307.7 -18880228872.4 -19507032368.5 -20135467047.1 
          -20755636578.7 -21358361777.1 -21934632280.3 -22475253637.2 -22970712667.4 
          -23411295198.5 -23787494331.7 -24090652366.6 -24312376733.9 -24427392240.6 
          -16756761708.6 -16880905140.4 -17121053951.6 -17462964128.4 -17889411048.1 
          -18382818153.8 -18926849085.8 -19507032368.5 -20110721300.6 -20726689855.1 
          -21344581371 -21954344396.9 -22545737688.7 -23107965594.7 -23629508173.5 
          -24098226569 -24501833727.3 -24828722300.6 -25067668262.8 -25190440140.1 
          -17584290866.1 -17693480321.2 -17906585803.1 -18214021597.8 -18603610875 
          -19062215647.2 -19576889096.9 -20135467047.1 -20726689855.1 -21339999236.2 
          -21965142303.5 -22591684791 -23208513549.8 -23803405942.3 -24362762888.3 
          -24871638553.5 -25314233412.5 -25674935382.6 -25938449554.8 -26072250049.7 
          -18328782414.9 -18428328429.3 -18623870695.5 -18908780881.5 -19274332332.5 
          -19710709056.6 -20207794896.8 -20755636578.7 -21344581371 -21965142303.5 
          -22607656341.3 -23261796772.5 -23915999679.6 -24556879662.7 -25168751709 
          -25733448228.2 -26230707647.1 -26639388278.9 -26938175843.5 -27088003615.7 
          -18998295636.4 -19091797582.2 -19276364305.1 -19547356271.6 -19898509482.6 
          -20322566449.5 -20811803622.3 -21358361777.1 -21954344396.9 -22591684791 
          -23261796772.5 -23955026806 -24659931672.6 -25362430928.7 -26044946663.6 
          -26685764208.5 -27259030238.2 -27735927247.9 -28086045263.8 -28259889839.5 
          -19597439263.2 -19687395332.9 -19865637704.6 -20128944757.9 -20472899038.4 
          -20892293325.1 -21381486279.8 -21934632280.3 -22545737688.7 -23208513549.8 
          -23915999679.6 -24659931672.6 -25429820831.2 -26211735334.2 -26986839729.8 
          -27729917202.1 -28408419684.5 -28983003505.6 -29409340282.6 -29620622320.8 
          -20128464903.4 -20216615518.9 -20391808340.6 -20651888423.9 -20993889973.7 
          -21414315793.7 -21909394148.9 -22475253637.2 -23107965594.7 -23803405942.3 
          -24556879662.7 -25362430928.7 -26211735334.2 -27092453455.7 -27985955997 
          -28864494909.3 -29688345826.2 -30404321790.6 -30946831090.1 -31219375165.8 
          -20592039475.5 -20679570701.8 -20853953379.1 -21113867641.8 -21457529391.8 
          -21882908215.8 -22387943350.4 -22970712667.4 -23629508173.5 -24362762888.3 
          -25168751709 -26044946663.6 -26986839729.8 -27985955997 -29026693291.2 
          -30081641646.1 -31105432021.6 -32028486688 -32753630688.3 -33132436002.3 
          -20987848939.8 -21075521836.1 -21250519824 -21512186609.6 -21859710972.5 
          -22292326516.3 -22809530977.7 -23411295198.5 -24098226569 -24871638553.5 
          -25733448228.2 -26685764208.5 -27729917202.1 -28864494909.3 -30081641646.1 
          -31360491572.3 -32656380502.1 -33885415692.1 -34907507047.9 -35483591041.3 
          -21315124910.7 -21403368083.8 -21579754255.7 -21844142254.5 -22196503470 
          -22637129837.7 -23166886165.7 -23787494331.7 -24501833727.3 -25314233412.5 
          -26230707647.1 -27259030238.2 -28408419684.5 -29688345826.2 -31105432021.6 
          -32656380502.1 -34313038309.4 -35993558990.6 -37514308262 -38486116555.2 
          -21573081858 -21662069378.6 -21840101106.9 -22107403321.5 -22464532313 
          -22912600661.5 -23453575153.9 -24090652366.6 -24828722300.6 -25674935382.6 
          -26639388278.9 -27735927247.9 -28983003505.6 -30404321790.6 -32028486688 
          -33885415692.1 -35993558990.6 -38322840832.8 -40699256398.6 -42538952650.6 
          -21760058656.6 -21849773379.1 -22029306942.6 -22299098176.9 -22660072616.6 
          -23113881116.6 -23663237599.2 -24312376733.9 -25067668262.8 -25938449554.8 
          -26938175843.5 -28086045263.8 -29409340282.6 -30946831090.1 -32753630688.3 
          -34907507047.9 -37514308262 -40699256398.6 -44522487811.7 -48485356556.6 
          -21858096811.6 -21948263319.5 -22128671613.1 -22399825254.8 -22762786479.1 
          -23219415423.6 -23772726878.5 -24427392240.6 -25190440140.1 -26072250049.7 
          -27088003615.7 -28259889839.5 -29620622320.8 -31219375165.8 -33132436002.3 
          -35483591041.3 -38486116555.2 -42538952650.6 -48485356556.6 -58493743411.9 
        </DataArray>
        <DataArray Name="saturation" NumberOfComponents="2" format="ascii" type="Float64">
          0.996475753783 0.00352424621667 
          0.991719975562 0.00828002443841 
          0.984830863035 0.0151691369652 
          0.975954974143 0.0240450258568 
          0.965389103353 0.0346108966468 
          0.953423616543 0.0465763834574 
          0.940293558039 0.059706441961 
          0.926167148048 0.073832851952 
          0.911143705201 0.0888562947989 
          0.895251757506 0.104748242494 
          0.878442938418 0.121557061582 
          0.860576944448 0.139423055552 
          0.841389199699 0.158610800301 
          0.820423134081 0.179576865919 
          0.796882571219 0.203117428781 
          0.769279817499 0.230720182501 
          0.734470932363 0.265529067637 
          0.684401735754 0.315598264246 
          0.591118666818 0.408881333182 
          0.32538088613 0.67461911387 
          0.991719975562 0.00828002443841 
          0.986595710743 0.0134042892567 
          0.979628970771 0.0203710292289 
          0.970893934615 0.0291060653855 
          0.960579691786 0.0394203082141 
          0.948909698868 0.051090301132 
          0.936087817675 0.0639121823246 
          0.922270163065 0.0777298369352 
          0.907552359996 0.0924476400045 
          0.891962510481 0.108037489519 
          0.875452838006 0.124547161994 
          0.85788366063 0.14211633937 
          0.838990585861 0.161009414139 
          0.818316510174 0.181683489826 
          0.795063737898 0.204936262102 
          0.767741551171 0.232258448829 
          0.733199976049 0.266800023951 
          0.683369604574 0.316630395426 
          0.590230685869 0.409769314131 
          0.324213841099 0.675786158901 
          0.984830863035 0.0151691369652 
          0.979628970771 0.0203710292289 
          0.972669855726 0.0273301442735 
          0.9640871984 0.0359128015998 
          0.954045324477 0.0459546755225 
          0.942726690869 0.0572733091306 
          0.930301956 0.0696980439998 
          0.916905953812 0.0830940461879 
          0.902622236893 0.0973777631072 
          0.887472456668 0.112527543332 
          0.871405294804 0.128594705196 
          0.854278699474 0.145721300526 
          0.835826042677 0.164173957323 
          0.815587523036 0.184412476964 
          0.792761965422 0.207238034578 
          0.765854155823 0.234145844177 
          0.731708003984 0.268291996016 
          0.682242677926 0.317757322074 
          0.589385395307 0.410614604693 
          0.323234005964 0.676765994036 
          0.975954974143 0.0240450258568 
          0.970893934614 0.0291060653855 
          0.9640871984 0.0359128015998 
          0.955740595014 0.0442594049861 
          0.946029561304 0.0539704386965 
          0.935121330442 0.0648786695576 
          0.923165225025 0.0768347749748 
          0.910277527318 0.0897224726817 
          0.896528273629 0.103471726371 
          0.881929940286 0.118070059714 
          0.866424857321 0.133575142679 
          0.84986601618 0.15013398382 
          0.831982163783 0.168017836217 
          0.81230854836 0.18769145164 
          0.790038437779 0.209961562221 
          0.763670553186 0.236329446814 
          0.730042646686 0.269957353314 
          0.681066914509 0.318933085491 
          0.588634990652 0.411365009348 
          0.322541298199 0.677458701801 
          0.965389103353 0.0346108966468 
          0.960579691786 0.039420308214 
          0.954045324477 0.0459546755225 
          0.946029561304 0.0539704386965 
          0.936723359692 0.0632766403081 
          0.92629105483 0.0737089451697 
          0.914870613531 0.0851293864692 
          0.902565368199 0.0974346318008 
          0.889433984539 0.110566015461 
          0.87547986056 0.12452013944 
          0.860638040245 0.139361959755 
          0.844755136277 0.155244863723 
          0.827553602494 0.172446397506 
          0.808561936619 0.191438063381 
          0.786966092048 0.213033907952 
          0.761257451076 0.238742548924 
          0.728268093003 0.271731906997 
          0.679909278641 0.320090721359 
          0.588061752599 0.411938247401 
          0.322292981826 0.677707018174 
          0.953423616543 0.0465763834573 
          0.948909698868 0.051090301132 
          0.942726690869 0.0572733091305 
          0.935121330442 0.0648786695576 
          0.92629105483 0.0737089451697 
          0.91639948062 0.0836005193799 
          0.905578288245 0.0944217117548 
          0.89392228704 0.10607771296 
          0.881481616075 0.118518383925 
          0.868252005698 0.131747994302 
          0.85416159799 0.14583840201 
          0.839050334396 0.160949665604 
          0.822633623442 0.177366376558 
          0.804432155911 0.195567844089 
          0.78362342734 0.21637657266 
          0.758690819698 0.241309180302 
          0.726462143817 0.273537856183 
          0.678856150302 0.321143849698 
          0.58777747876 0.41222252124 
          0.322704690936 0.677295309064 
          0.940293558039 0.059706441961 
          0.936087817675 0.0639121823246 
          0.930301956 0.0696980439998 
          0.923165225025 0.0768347749748 
          0.914870613531 0.0851293864692 
          0.905578288245 0.0944217117548 
          0.895414894578 0.104585105422 
          0.884469149138 0.115530850862 
          0.872784949756 0.127215050244 
          0.860352053903 0.139647946097 
          0.84709278765 0.15290721235 
          0.832840982206 0.167159017794 
          0.817305125437 0.182694874563 
          0.799997883637 0.200002116363 
          0.780087954033 0.219912045967 
          0.756050901467 0.243949098533 
          0.724712926026 0.275287073974 
          0.67801186983 0.32198813017 
          0.587924019428 0.412075980572 
          0.32405277441 0.67594722559 
          0.926167148048 0.073832851952 
          0.922270163065 0.0777298369352 
          0.916905953812 0.083094046188 
          0.910277527318 0.0897224726817 
          0.902565368199 0.0974346318008 
          0.89392228704 0.10607771296 
          0.884469149138 0.115530850862 
          0.874289489572 0.125710510428 
          0.863422479813 0.136577520187 
          0.851853497056 0.148146502944 
          0.839500491877 0.160499508123 
          0.826192392903 0.173807607097 
          0.81163170562 0.18836829438 
          0.795323750304 0.204676249696 
          0.776429025312 0.223570974688 
          0.753416521074 0.246583478926 
          0.723115098747 0.276884901253 
          0.677497313684 0.322502686316 
          0.5886748085 0.4113251915 
          0.326677309812 0.673322690188 
          0.911143705201 0.0888562947989 
          0.907552359996 0.0924476400045 
          0.902622236893 0.0973777631071 
          0.896528273629 0.103471726371 
          0.889433984539 0.110566015461 
          0.881481616075 0.118518383925 
          0.872784949756 0.127215050244 
          0.863422479813 0.136577520187 
          0.853429678675 0.146570321325 
          0.842789044933 0.157210955067 
          0.831415888239 0.168584111761 
          0.819136048968 0.180863951032 
          0.805647829833 0.194352170167 
          0.790450891229 0.209549108771 
          0.772699270127 0.227300729873 
          0.750857978499 0.249142021501 
          0.721764899735 0.278235100265 
          0.677447920666 0.322552079334 
          0.590236999604 0.409763000396 
          0.330985146749 0.669014853251 
          0.895251757506 0.104748242494 
          0.891962510481 0.108037489519 
          0.887472456668 0.112527543332 
          0.881929940286 0.118070059714 
          0.87547986056 0.12452013944 
          0.868252005698 0.131747994302 
          0.860352053903 0.139647946097 
          0.851853497056 0.148146502944 
          0.842789044933 0.157210955067 
          0.83313995161 0.16686004839 
          0.822821046674 0.177178953326 
          0.811657623152 0.188342376848 
          0.799346563507 0.200653436493 
          0.785384799195 0.214615200805 
          0.768923120489 0.231076879511 
          0.748426987287 0.251573012713 
          0.720752462105 0.279247537895 
          0.678009743163 0.321990256837 
          0.592853163874 0.407146836126 
          0.337452392466 0.662547607534 
          0.878442938418 0.121557061582 
          0.875452838006 0.124547161994 
          0.871405294804 0.128594705196 
          0.866424857321 0.133575142679 
          0.860638040245 0.139361959755 
          0.85416159799 0.14583840201 
          0.84709278765 0.15290721235 
          0.839500491877 0.160499508123 
          0.831415888239 0.168584111761 
          0.822821046674 0.177178953326 
          0.813633149111 0.186366850889 
          0.803680456065 0.196319543935 
          0.792662512155 0.207337487845 
          0.780078089598 0.219921910402 
          0.765079963842 0.234920036158 
          0.746141057303 0.253858942697 
          0.720148707211 0.279851292789 
          0.679330894258 0.320669105742 
          0.59680038798 0.40319961202 
          0.346626355036 0.653373644964 
          0.860576944448 0.139423055552 
          0.85788366063 0.14211633937 
          0.854278699474 0.145721300526 
          0.84986601618 0.15013398382 
          0.844755136277 0.155244863723 
          0.839050334396 0.160949665604 
          0.832840982206 0.167159017794 
          0.826192392903 0.173807607097 
          0.819136048968 0.180863951032 
          0.811657623152 0.188342376848 
          0.803680456065 0.196319543935 
          0.795040604111 0.204959395889 
          0.785446079597 0.214553920403 
          0.774404260246 0.225595739754 
          0.761077919902 0.238922080098 
          0.743958156622 0.256041843378 
          0.719982392784 0.280017607216 
          0.68154366911 0.31845633089 
          0.602382589707 0.397617410293 
          0.35912873595 0.64087126405 
          0.841389199699 0.158610800301 
          0.838990585861 0.161009414139 
          0.835826042677 0.164173957323 
          0.831982163783 0.168017836217 
          0.827553602494 0.172446397506 
          0.822633623442 0.177366376558 
          0.817305125437 0.182694874563 
          0.81163170562 0.18836829438 
          0.805647829833 0.194352170167 
          0.799346563507 0.200653436493 
          0.792662512155 0.207337487845 
          0.785446079597 0.214553920403 
          0.777421805449 0.222578194551 
          0.768115337637 0.231884662363 
          0.756711203597 0.243288796403 
          0.741734507101 0.258265492899 
          0.720199711956 0.279800288044 
          0.684728980399 0.315271019601 
          0.609907910832 0.390092089168 
          0.375663853681 0.624336146319 
          0.820423134081 0.179576865919 
          0.818316510174 0.181683489826 
          0.815587523036 0.184412476964 
          0.81230854836 0.18769145164 
          0.808561936619 0.191438063381 
          0.804432155911 0.195567844089 
          0.799997883637 0.200002116363 
          0.795323750304 0.204676249696 
          0.790450891229 0.209549108771 
          0.785384799195 0.214615200805 
          0.780078089598 0.219921910402 
          0.774404260246 0.225595739754 
          0.768115337637 0.231884662363 
          0.760768645536 0.239231354464 
          0.751587034884 0.248412965116 
          0.739152052055 0.260847947945 
          0.720592973988 0.279407026012 
          0.688848518324 0.311151481676 
          0.619634972013 0.380365027987 
          0.397032923216 0.602967076784 
          0.796882571219 0.203117428781 
          0.795063737898 0.204936262102 
          0.792761965422 0.207238034578 
          0.790038437779 0.209961562221 
          0.786966092048 0.213033907952 
          0.78362342734 0.21637657266 
          0.780087954033 0.219912045967 
          0.776429025312 0.223570974688 
          0.772699270127 0.227300729873 
          0.768923120489 0.231076879511 
          0.765079963842 0.234920036158 
          0.761077919902 0.238922080098 
          0.756711203597 0.243288796403 
          0.751587034884 0.248412965116 
          0.744989146981 0.255010853019 
          0.735585723807 0.264414276193 
          0.720671129609 0.279328870391 
          0.693617465466 0.306382534534 
          0.631655559345 0.368344440655 
          0.424133744871 0.575866255129 
          0.769279817499 0.230720182501 
          0.767741551171 0.232258448829 
          0.765854155823 0.234145844177 
          0.763670553186 0.236329446814 
          0.761257451076 0.238742548924 
          0.758690819698 0.241309180302 
          0.756050901467 0.243949098533 
          0.753416521074 0.246583478926 
          0.750857978499 0.249142021501 
          0.748426987287 0.251573012713 
          0.746141057303 0.253858942697 
          0.743958156622 0.256041843378 
          0.741734507101 0.258265492899 
          0.739152052055 0.260847947945 
          0.735585723807 0.264414276193 