<?xml version="1.0"?>
<VTKFile type="UnstructuredGrid">
  <UnstructuredGrid>
    <Piece NumberOfCells="400" NumberOfPoints="882">
      <Points>
        <DataArray Name="Coordinates" NumberOfComponents="3" format="ascii" type="Float64">
          0 0 0
          10 0 0
          20 0 0
          30 0 0
          40 0 0
          50 0 0
          60 0 0
          70 0 0
          80 0 0
          90 0 0
          100 0 0
          110 0 0
          120 0 0
          130 0 0
          140 0 0
          150 0 0
          160 0 0
          170 0 0
          180 0 0
          190 0 0
          200 0 0
          0 10 0
          10 10 0
          20 10 0
          30 10 0
          40 10 0
          50 10 0
          60 10 0
          70 10 0
          80 10 0
          90 10 0
          100 10 0
          110 10 0
          120 10 0
          130 10 0
          140 10 0
          150 10 0
          160 10 0
          170 10 0
          180 10 0
          190 10 0
          200 10 0
          0 20 0
          10 20 0
          20 20 0
          30 20 0
          40 20 0
          50 20 0
          60 20 0
          70 20 0
          80 20 0
          90 20 0
          100 20 0
          110 20 0
          120 20 0
          130 20 0
          140 20 0
          150 20 0
          160 20 0
          170 20 0
          180 20 0
          190 20 0
          200 20 0
          0 30 0
          10 30 0
          20 30 0
          30 30 0
          40 30 0
          50 30 0
          60 30 0
          70 30 0
          80 30 0
          90 30 0
          100 30 0
          110 30 0
          120 30 0
          130 30 0
          140 30 0
          150 30 0
          160 30 0
          170 30 0
          180 30 0
          190 30 0
          200 30 0
          0 40 0
          10 40 0
          20 40 0
          30 40 0
          40 40 0
          50 40 0
          60 40 0
          70 40 0
          80 40 0
          90 40 0
          100 40 0
          110 40 0
          120 40 0
          130 40 0
          140 40 0
          150 40 0
          160 40 0
          170 40 0
          180 40 0
          190 40 0
          200 40 0
          0 50 0
          10 50 0
          20 50 0
          30 50 0
          40 50 0
          50 50 0
          60 50 0
          70 50 0
          80 50 0
          90 50 0
          100 50 0
          110 50 0
          120 50 0
          130 50 0
          140 50 0
          150 50 0
          160 50 0
          170 50 0
          180 50 0
          190 50 0
          200 50 0
          0 60 0
          10 60 0
          20 60 0
          30 60 0
          40 60 0
          50 60 0
          60 60 0
          70 60 0
          80 60 0
          90 60 0
          100 60 0
          110 60 0
          120 60 0
          130 60 0
          140 60 0
          150 60 0
          160 60 0
          170 60 0
          180 60 0
          190 60 0
          200 60 0
          0 70 0
          10 70 0
          20 70 0
          30 70 0
          40 70 0
          50 70 0
          60 70 0
          70 70 0
          80 70 0
          90 70 0
          100 70 0
          110 70 0
          120 70 0
          130 70 0
          140 70 0
          150 70 0
          160 70 0
          170 70 0
          180 70 0
          190 70 0
          200 70 0
          0 80 0
          10 80 0
          20 80 0
          30 80 0
          40 80 0
          50 80 0
          60 80 0
          70 80 0
          80 80 0
          90 80 0
          100 80 0
          110 80 0
          120 80 0
          130 80 0
          140 80 0
          150 80 0
          160 80 0
          170 80 0
          180 80 0
          190 80 0
          200 80 0
          0 90 0
          10 90 0
          20 90 0
          30 90 0
          40 90 0
          50 90 0
          60 90 0
          70 90 0
          80 90 0
          90 90 0
          100 90 0
          110 90 0
          120 90 0
          130 90 0
          140 90 0
          150 90 0
          160 90 0
          170 90 0
          180 90 0
          190 90 0
          200 90 0
          0 100 0
          10 100 0
          20 100 0
          30 100 0
          40 100 0
          50 100 0
          60 100 0
          70 100 0
          80 100 0
          90 100 0
          100 100 0
          110 100 0
          120 100 0
          130 100 0
          140 100 0
          150 100 0
          160 100 0
          170 100 0
          180 100 0
          190 100 0
          200 100 0
          0 110 0
          10 110 0
          20 110 0
          30 110 0
          40 110 0
          50 110 0
          60 110 0
          70 110 0
          80 110 0
          90 110 0
          100 110 0
          110 110 0
          120 110 0
          130 110 0
          140 110 0
          150 110 0
          160 110 0
          170 110 0
          180 110 0
          190 110 0
          200 110 0
          0 120 0
          10 120 0
          20 120 0
          30 120 0
          40 120 0
          50 120 0
          60 120 0
          70 120 0
          80 120 0
          90 120 0
          100 120 0
          110 120 0
          120 120 0
          130 120 0
          140 120 0
          150 120 0
          160 120 0
          170 120 0
          180 120 0
          190 120 0
          200 120 0
          0 130 0
          10 130 0
          20 130 0
          30 130 0
          40 130 0
          50 130 0
          60 130 0
          70 130 0
          80 130 0
          90 130 0
          100 130 0
          110 130 0
          120 130 0
          130 130 0
          140 130 0
          150 130 0
          160 130 0
          170 130 0
          180 130 0
          190 130 0
          200 130 0
          0 140 0
          10 140 0
          20 140 0
          30 140 0
          40 140 0
          50 140 0
          60 140 0
          70 140 0
          80 140 0
          90 140 0
          100 140 0
          110 140 0
          120 140 0
          130 140 0
          140 140 0
          150 140 0
          160 140 0
          170 140 0
          180 140 0
          190 140 0
          200 140 0
          0 150 0
          10 150 0
          20 150 0
          30 150 0
          40 150 0
          50 150 0
          60 150 0
          70 150 0
          80 150 0
          90 150 0
          100 150 0
          110 150 0
          120 150 0
          130 150 0
          140 150 0
          150 150 0
          160 150 0
          170 150 0
          180 150 0
          190 150 0
          200 150 0
          0 160 0
          10 160 0
          20 160 0
          30 160 0
          40 160 0
          50 160 0
          60 160 0
          70 160 0
          80 160 0
          90 160 0
          100 160 0
          110 160 0
          120 160 0
          130 160 0
          140 160 0
          150 160 0
          160 160 0
          170 160 0
          180 160 0
          190 160 0
          200 160 0
          0 170 0
          10 170 0
          20 170 0
          30 170 0
          40 170 0
          50 170 0
          60 170 0
          70 170 0
          80 170 0
          90 170 0
          100 170 0
          110 170 0
          120 170 0
          130 170 0
          140 170 0
          150 170 0
          160 170 0
          170 170 0
          180 170 0
          190 170 0
          200 170 0
          0 180 0
          10 180 0
          20 180 0
          30 180 0
          40 180 0
          50 180 0
          60 180 0
          70 180 0
          80 180 0
          90 180 0
          100 180 0
          110 180 0
          120 180 0
          130 180 0
          140 180 0
          150 180 0
          160 180 0
          170 180 0
          180 180 0
          190 180 0
          200 180 0
          0 190 0
          10 190 0
          20 190 0
          30 190 0
          40 190 0
          50 190 0
          60 190 0
          70 190 0
          80 190 0
          90 190 0
          100 190 0
          110 190 0
          120 190 0
          130 190 0
          140 190 0
          150 190 0
          160 190 0
          170 190 0
          180 190 0
          190 190 0
          200 190 0
          0 200 0
          10 200 0
          20 200 0
          30 200 0
          40 200 0
          50 200 0
          60 200 0
          70 200 0
          80 200 0
          90 200 0
          100 200 0
          110 200 0
          120 200 0
          130 200 0
          140 200 0
          150 200 0
          160 200 0
          170 200 0
          180 200 0
          190 200 0
          200 200 0
          0 0 10
          10 0 10
          20 0 10
          30 0 10
          40 0 10
          50 0 10
          60 0 10
          70 0 10
          80 0 10
          90 0 10
          100 0 10
          110 0 10
          120 0 10
          130 0 10
          140 0 10
          150 0 10
          160 0 10
          170 0 10
          180 0 10
          190 0 10
          200 0 10
          0 10 10
          10 10 10
          20 10 10
          30 10 10
          40 10 10
          50 10 10
          60 10 10
          70 10 10
          80 10 10
          90 10 10
          100 10 10
          110 10 10
          120 10 10
          130 10 10
          140 10 10
          150 10 10
          160 10 10
          170 10 10
          180 10 10
          190 10 10
          200 10 10
          0 20 10
          10 20 10
          20 20 10
          30 20 10
          40 20 10
          50 20 10
          60 20 10
          70 20 10
          80 20 10
          90 20 10
          100 20 10
          110 20 10
          120 20 10
          130 20 10
          140 20 10
          150 20 10
          160 20 10
          170 20 10
          180 20 10
          190 20 10
          200 20 10
          0 30 10
          10 30 10
          20 30 10
          30 30 10
          40 30 10
          50 30 10
          60 30 10
          70 30 10
          80 30 10
          90 30 10
[...]
      <CellData Scalars="saturation">
        <DataArray Name="pressure" NumberOfComponents="1" format="ascii" type="Float64">
          3.22752873533e-05 -5203167804.37 -8433429049.29 -10747287858.1 -12567026122.4 
          -14086530408.5 -15405968619.1 -16582047329.6 -17649081058.3 -18628826247.6 
          -19535537549.3 -20378815095.4 -21165345875.3 -21899927955.5 -22585143672.5 
          -23214402296.5 -23738636620.3 -24077133702.1 -24248774254.4 -24326732152.4 
          -5203167804.37 -7298589944.93 -9446567152.99 -11322843283.5 -12938327102.3 
          -14350043732.6 -15606907165.4 -16744059695 -17785728307.3 -18748499981.9 
          -19643772722.8 -20479471107.6 -21261256865.1 -21993277920.2 -22677604222.2 
          -23306530722.5 -23827471137.3 -24159825711.3 -24327600987.7 -24404504157.2 
          -8433429049.29 -9446567152.99 -10821766845.1 -12237938452.9 -13583122022.9 
          -14831063267.1 -15984597672.6 -17054130755 -18050338836.7 -18982101503.4 
          -19856246214.3 -20677878821.8 -21450862990.6 -22178141911.1 -22860728668.6 
          -23488580477.7 -24002633501.8 -24323175556.5 -24484142514.3 -24559037598.7 
          -10747287858.1 -11322843283.5 -12237938452.9 -13297828159.8 -14391829979.5 
          -15467141883.3 -16501960525.7 -17489141274.4 -18427792179.5 -19319308571.7 
          -20165648689.7 -20968700039.2 -21730151815.3 -22451388128.2 -23131868589.4 
          -23757779017.2 -24260722902.1 -24563816293.2 -24716170520.3 -24788377699.9 
          -12567026122.4 -12938327102.3 -13583122022.9 -14391829979.5 -15282049052.6 
          -16201671932.1 -17120724606.7 -18022946639.2 -18899848250.1 -19747089804.3 
          -20562461450.8 -21344852529 -22093773025 -22808892281.9 -23487621457.6 
          -24110489471 -24597208487.6 -24877567674 -25020717552 -25089880529.6 
          -14086530408.5 -14350043732.6 -14831063267.1 -15467141883.3 -16201671932.1 
          -16991775081.2 -17807926041.5 -18630794835.8 -19447981459.2 -20251503100.8 
          -21036110942.8 -21798269289.9 -22535548498.1 -23245860622.2 -23923918042.1 
          -24541911114.8 -25006172225.5 -25259957946.8 -25394416071.6 -25460528789 
          -15405968619.1 -15606907165.4 -15984597672.6 -16501960525.7 -17120724606.7 
          -17807926041.5 -18537848831.9 -19291492792.9 -20055163359.9 -20819021274.8 
          -21575917673.4 -22320570327.5 -23048941918.2 -23757120449.6 -24436042404.8 
          -25045729863.6 -25480106057.2 -25706609236 -25833819450.9 -25897284522 
          -16582047329.6 -16744059695 -17054130755 -17489141274.4 -18022946639.2 
          -18630794835.8 -19291492792.9 -19987919975.5 -20706658034.9 -21437297063.6 
          -22171730657.4 -22903551070.7 -23627403009.7 -24337282346 -25018454761 
          -25613845394.6 -26010426926.6 -26213452980.7 -26335757241.9 -26397504199.7 
          -17649081058.3 -17785728307.3 -18050338836.7 -18427792179.5 -18899848250.1 
          -19447981459.2 -20055163359.9 -20706658034.9 -21390142069.3 -22095462288.2 
          -22814246663.3 -23539438407 -24264487803.1 -24980573904.3 -25664075573.4 
          -26236232814.3 -26589379208.4 -26776971411.8 -26897798545.4 -26959470671 
          -18628826247.6 -18748499981.9 -18982101503.4 -19319308571.7 -19747089804.3 
          -20251503100.8 -20819021274.8 -21437297063.6 -22095462288.2 -22784107908.5 
          -23495053235.1 -24220866736.5 -24953589164.4 -25679967340.5 -26362540191 
          -26900461587.7 -27211652723.2 -27394466486.3 -27518856841.4 -27583109251.8 
          -19535537549.3 -19643772722.8 -19856246214.3 -20165648689.7 -20562461450.8 
          -21036110942.8 -21575917673.4 -22171730657.4 -22814246663.3 -23495053235.1 
          -24206393844.1 -24940427845.5 -25686908599.8 -26424977949.2 -27097388126.1 
          -27590961516.5 -27873375691.1 -28064403306.1 -28200018729.8 -28271000242.1 
          -20378815095.4 -20479471107.6 -20677878821.8 -20968700039.2 -21344852529 
          -21798269289.9 -22320570327.5 -22903551070.7 -23539438407 -24220866736.5 
          -24940427845.5 -25689246812.6 -26452634516.8 -27197049862.9 -27843478938.1 
          -28291245181 -28570878146 -28787301511 -28945807885.8 -29029872744.7 
          -21165345875.3 -21261256865.1 -21450862990.6 -21730151815.3 -22093773025 
          -22535548498.1 -23048941918.2 -23627403009.7 -24264487803.1 -24953589164.4 
          -25686908599.8 -26452634516.8 -27227589161 -27961468144.4 -28566849688.8 
          -28988428060 -29301709738.1 -29567285377.7 -29766037699.6 -29872810106.1 
          -21899927955.5 -21993277920.2 -22178141911.1 -22451388128.2 -22808892281.9 
          -23245860622.2 -23757120449.6 -24337282346 -24980573904.3 -25679967340.5 
          -26424977949.2 -27197049862.9 -27961468144.4 -28660240500.8 -29230573532.9 
          -29675320709 -30067021293.9 -30413897123.4 -30678247377.8 -30822519874.1 
          -22585143672.5 -22677604222.2 -22860728668.6 -23131868589.4 -23487621457.6 
          -23923918042.1 -24436042404.8 -25018454761 -25664075573.4 -26362540191 
          -27097388126.1 -27843478938.1 -28566849688.8 -29230573532.9 -29817151107 
          -30355484356.7 -30873570347.4 -31343018599.3 -31710534814.1 -31916502138.4 
          -23214402296.5 -23306530722.5 -23488580477.7 -23757779017.2 -24110489471 
          -24541911114.8 -25045729863.6 -25613845394.6 -26236232814.3 -26900461587.7 
          -27590961516.5 -28291245181 -28988428060 -29675320709 -30355484356.7 
          -31042129492.2 -31728555354.7 -32374072065.9 -32904371140.8 -33216451727.1 
          -23738636620.3 -23827471137.3 -24002633501.8 -24260722902.1 -24597208487.6 
          -25006172225.5 -25480106057.2 -26010426926.6 -26589379208.4 -27211652723.2 
          -27873375691.1 -28570878146 -29301709738.1 -30067021293.9 -30873570347.4 
          -31728555354.7 -32624449261.7 -33520343168.7 -34316425956.1 -34828481901.9 
          -24077133702.1 -24159825711.3 -24323175556.5 -24563816293.2 -24877567674 
          -25259957946.8 -25706609236 -26213452980.7 -26776971411.8 -27394466486.3 
          -28064403306.1 -28787301511 -29567285377.7 -30413897123.4 -31343018599.3 
          -32374072065.9 -33520343168.7 -34766425390.9 -36012507613.2 -36952568022.7 
          -24248774254.4 -24327600987.7 -24484142514.3 -24716170520.3 -25020717552 
          -25394416071.6 -25833819450.9 -26335757241.9 -26897798545.4 -27518856841.4 
          -28200018729.8 -28945807885.8 -29766037699.6 -30678247377.8 -31710534814.1 
          -32904371140.8 -34316425956.1 -36012507613.2 -38014611083 -40016714552.8 
          -24326732152.4 -24404504157.2 -24559037598.7 -24788377699.9 -25089880529.6 
          -25460528789 -25897284522 -26397504199.7 -26959470671 -27583109251.8 
          -28271000242.1 -29029872744.7 -29872810106.1 -30822519874.1 -31916502138.4 
          -33216451727.1 -34828481901.9 -36952568022.7 -40016714552.8 -45082964552.8 
        </DataArray>
        <DataArray Name="saturation" NumberOfComponents="2" format="ascii" type="Float64">
          0.992791795047 0.00720820495264 
          0.983482440577 0.0165175594227 
          0.970581918293 0.0294180817074 
          0.954674150085 0.0453258499148 
          0.936493217615 0.0635067823846 
          0.916632213321 0.0833677866794 
          0.89548837051 0.10451162949 
          0.873271745649 0.126728254351 
          0.850016501031 0.149983498969 
          0.825574474224 0.174425525776 
          0.799572372958 0.200427627042 
          0.771300584283 0.228699415717 
          0.739457135875 0.260542864125 
          0.701543576148 0.298456423852 
          0.652323971748 0.347676028252 
          0.579490930762 0.420509069238 
          0.451516868415 0.548483131585 
          0.216758555045 0.783241444955 
          0.0212182638416 0.978781736158 
          6.30083443818e-05 0.999936991656 
          0.983482440577 0.0165175594227 
          0.97374212821 0.0262578717898 
          0.96100359751 0.0389964024899 
          0.945641354321 0.0543586456791 
          0.92815304895 0.0718469510497 
          0.908999691694 0.0910003083056 
          0.888522896287 0.111477103713 
          0.866913922906 0.133086077094 
          0.84420281488 0.15579718512 
          0.820241073611 0.179758926389 
          0.794653242171 0.205346757829 
          0.766720541727 0.233279458273 
          0.735116493464 0.264883506536 
          0.697283435361 0.302716564639 
          0.647837455853 0.352162544147 
          0.574069908293 0.425930091707 
          0.44343185355 0.55656814645 
          0.205465880712 0.794534119288 
          0.0182662958232 0.981733704177 
          4.5720281381e-05 0.999954279719 
          0.970581918293 0.0294180817074 
          0.96100359751 0.0389964024899 
          0.948623692242 0.0513763077579 
          0.933865868751 0.0661341312491 
          0.917139361028 0.0828606389718 
          0.898809252026 0.101190747974 
          0.87915029889 0.12084970111 
          0.858315337815 0.141684662185 
          0.836314570738 0.163685429262 
          0.812987786162 0.187012213838 
          0.787947705307 0.212052294693 
          0.760454671522 0.239545328478 
          0.729137598436 0.270862401564 
          0.691337242546 0.308662757454 
          0.641418547348 0.358581452652 
          0.565990083273 0.434009916727 
          0.430777333405 0.569222666595 
          0.187664205151 0.812335794849 
          0.014155247 0.985844753 
          2.64629451738e-05 0.999973537055 
          0.954674150085 0.0453258499148 
          0.945641354321 0.0543586456791 
          0.933865868751 0.0661341312491 
          0.919842878841 0.0801571211588 
          0.903958970299 0.0960410297009 
          0.886526170316 0.113473829684 
          0.867768349473 0.132231650527 
          0.847800463712 0.152199536288 
          0.82660687453 0.17339312547 
          0.804007428923 0.195992571077 
          0.77959290429 0.22040709571 
          0.752588800225 0.247411199775 
          0.721555472017 0.278444527983 
          0.683682763839 0.316317236161 
          0.632966766898 0.367033233102 
          0.555019496084 0.444980503916 
          0.413143075223 0.586856924777 
          0.163976695096 0.836023304904 
          0.00978403148329 0.990215968517 
          1.20579714991e-05 0.999987942029 
          0.936493217615 0.0635067823846 
          0.92815304895 0.0718469510497 
          0.917139361028 0.0828606389718 
          0.903958970299 0.0960410297009 
          0.888985412926 0.111014587074 
          0.872498565727 0.127501434273 
          0.854685996241 0.145314003759 
          0.835630888478 0.164369111522 
          0.815290943775 0.184709056225 
          0.793460983562 0.206539016438 
          0.769700557939 0.230299442061 
          0.743184982227 0.256815017773 
          0.712378302056 0.287621697944 
          0.674261100089 0.325738899911 
          0.622320582851 0.377679417149 
          0.540806458573 0.459193541427 
          0.389927487191 0.610072512809 
          0.135522113789 0.864477886211 
          0.00594023789529 0.994059762105 
          4.21800444495e-06 0.999995781996 
          0.916632213321 0.0833677866794 
          0.908999691694 0.0910003083056 
          0.898809252026 0.101190747974 
          0.886526170316 0.113473829684 
          0.872498565727 0.127501434273 
          0.856978595275 0.143021404725 
          0.840124988557 0.159875011443 
          0.821993472515 0.178006527485 
          0.80251512977 0.19748487023 
          0.781455420846 0.218544579154 
          0.758333652994 0.241666347006 
          0.7322578396 0.2677421604 
          0.701562962233 0.298437037767 
          0.662950194949 0.337049805051 
          0.609228081944 0.390771918056 
          0.522853173087 0.477146826913 
          0.360399402511 0.639600597489 
          0.104350599396 0.895649400604 
          0.00310604161108 0.996893958389 
          1.09483835384e-06 0.999998905162 
          0.89548837051 0.10451162949 
          0.888522896287 0.111477103713 
          0.87915029889 0.12084970111 
          0.867768349473 0.132231650527 
          0.854685996241 0.145314003759 
          0.840124988557 0.159875011443 
          0.824216612085 0.175783387915 
          0.806990065604 0.193009934396 
          0.788348560733 0.211651439267 
          0.768023055988 0.231976944012 
          0.745482260208 0.254517739792 
          0.719747365329 0.280252634671 
          0.688984768025 0.311015231975 
          0.649530361632 0.350469638368 
          0.593306872029 0.406693127971 
          0.500472344685 0.499527655315 
          0.323803000687 0.676196999313 
          0.0736068243163 0.926393175684 
          0.00137159157305 0.998628408427 
          2.04190342966e-07 0.99999979581 
          0.873271745649 0.126728254351 
          0.866913922906 0.133086077094 
          0.858315337815 0.141684662185 
          0.847800463712 0.152199536288 
          0.835630888478 0.164369111522 
          0.821993472515 0.178006527485 
          0.806990065604 0.193009934396 
          0.790621725316 0.209378274684 
          0.772760212402 0.227239787598 
          0.75309545647 0.24690454353 
          0.731032789282 0.268967210718 
          0.705482604003 0.294517395997 
          0.674394920405 0.325605079595 
          0.633634073191 0.366365926809 
          0.573982744508 0.426017255492 
          0.472739473614 0.527260526386 
          0.279713927726 0.720286072274 
          0.046928376098 0.953071623902 
          0.000506637179915 0.99949336282 
          2.7366567984e-08 0.999999972633 
          0.850016501031 0.149983498969 
          0.84420281488 0.15579718512 
          0.836314570738 0.163685429262 
          0.82660687453 0.17339312547 
          0.815290943775 0.184709056225 
          0.80251512977 0.19748487023 
          0.788348560733 0.211651439267 
          0.772760212402 0.227239787598 
          0.755585113791 0.244414886209 
          0.736462763739 0.263537236261 
          0.71471954854 0.28528045146 
          0.689125649464 0.310874350536 
          0.657355320065 0.342644679935 
          0.614673579474 0.385326420526 
          0.550430083099 0.449569916901 
          0.438573899849 0.561426100151 
          0.228861377072 0.771138622928 
          0.026850708586 0.973149291414 
          0.000157051419738 0.99984294858 
          2.61588092854e-09 0.999999997384 
          0.825574474224 0.174425525776 
          0.820241073611 0.179758926389 
          0.812987786162 0.187012213838 
          0.804007428923 0.195992571077 
          0.793460983562 0.206539016438 
          0.781455420846 0.218544579154 
          0.768023055988 0.231976944012 
          0.75309545647 0.24690454353 
          0.736462763739 0.263537236261 
          0.717702296554 0.282297703446 
          0.696040759426 0.303959240574 
          0.670071859669 0.329928140331 
          0.637124779209 0.362875220791 
          0.591718459019 0.408281540981 
          0.521478129814 0.478521870186 
          0.396846042876 0.603153957124 
          0.17393851047 0.82606148953 
          0.0136627223585 0.986337277641 
          4.07253311784e-05 0.999959274669 
          8.36363756029e-11 0.999999999916 
          0.799572372958 0.200427627042 
          0.794653242171 0.205346757829 
          0.787947705307 0.212052294693 
          0.77959290429 0.22040709571 
          0.769700557939 0.230299442061 
          0.758333652994 0.241666347006 
          0.745482260208 0.254517739792 
          0.731032789282 0.268967210718 
          0.71471954854 0.28528045146 
          0.696040759426 0.303959240574 
          0.67409776367 0.32590223633 
          0.647264190303 0.352735809697 
          0.612442798006 0.387557201994 
          0.563264456337 0.436735543663 
          0.485421743667 0.514578256333 
          0.346480226629 0.653519773371 
          0.120375536152 0.879624463848 
          0.00612975428638 0.993870245714 
          8.7988755202e-06 0.999991201124 
          4.08512113026e-12 0.999999999996 
          0.771300584283 0.228699415717 
          0.766720541727 0.233279458273 
          0.760454671522 0.239545328478 
          0.752588800225 0.247411199775 
          0.743184982227 0.256815017773 
          0.7322578396 0.2677421604 
          0.719747365329 0.280252634671 
          0.705482604003 0.294517395997 
          0.689125649464 0.310874350536 
          0.670071859669 0.329928140331 
          0.647264190303 0.352735809697 
          0.618803880297 0.381196119703 
          0.581101004729 0.418898995271 
          0.526803859703 0.473196140297 
          0.439791522003 0.560208477997 
          0.287188369744 0.712811630256 
          0.0756153157966 0.924384684203 
          0.0024866118762 0.997513388124 
          1.67985793029e-06 0.999998320142 
          1.65978342181e-13 1 
          0.739457135875 0.260542864125 
          0.735116493464 0.264883506536 
          0.729137598436 0.270862401564 
          0.721555472017 0.278444527983 
          0.712378302056 0.287621697944 
          0.701562962233 0.298437037767 
          0.688984768025 0.311015231975 
          0.674394920405 0.325605079595 
          0.657355320065 0.342644679935 
          0.637124779209 0.362875220791 
          0.612442798006 0.387557201994 
          0.581101004729 0.418898995271 
          0.538986763164 0.461013236836 
          0.477934580987 0.522065419013 
          0.38094822096 0.61905177904 
          0.220045572095 0.779954427905 
          0.0433937960874 0.956606203913 
          0.000936346628009 0.999063653372 
          2.98073033811e-07 0.999999701927 
          6.16173778667e-15 1 
          0.701543576148 0.298456423852 
          0.697283435361 0.302716564639 
          0.691337242546 0.308662757454 
          0.683682763839 0.316317236161 
          0.674261100089 0.325738899911 
          0.662950194949 0.337049805051 
          0.649530361632 0.350469638368 
          0.633634073191 0.366365926809 
          0.614673579474 0.385326420526 
          0.591718459019 0.408281540981 
          0.563264456337 0.436735543663 
          0.526803859703 0.473196140297 
          0.477934580987 0.522065419013 
          0.408458484571 0.591541515429 
          0.30318454767 0.69681545233 
          0.147611715628 0.852388284372 
          0.0211072529561 0.978892747044 
          0.000276012363107 0.999723987637 
          3.44205664804e-08 0.999999965579 
          5.55111512313e-17 1 
          0.652323971748 0.347676028252 
          0.647837455853 0.352162544147 
          0.641418547348 0.358581452652 
          0.632966766898 0.367033233102 
          0.622320582851 0.377679417149 
          0.609228081944 0.390771918056 
          0.593306872029 0.406693127971 
          0.573982744508 0.426017255492 
          0.550430083099 0.449569916901 
          0.521478129814 0.478521870186 
          0.485421743667 0.514578256333 
          0.439791522003 0.560208477997 
          0.38094822096 0.61905177904 
          0.30318454767 0.69681545233 
          0.198703064493 0.801296935507 
          0.0733570497941 0.926642950206 
          0.00605635694875 0.993943643051 
          2.98420292113e-05 0.999970157971 
          1.64794677904e-10 0.999999999835 
          0 1 
          0.579490930762 0.420509069238 
          0.574069908293 0.425930091707 
          0.565990083273 0.434009916727 
          0.555019496084 0.444980503916 
          0.540806458573 0.459193541427 
          0.522853173087 0.477146826913 
          0.500472344685 0.499527655315 
          0.472739473614 0.527260526386 
          0.438573899849 0.561426100151 
          0.396846042876 0.603153957124 
          0.346480226629 0.653519773371 
          0.287188369744 0.712811630256 
          0.220045572095 0.779954427905 
          0.147611715628 0.852388284372 
          0.0733570497941 0.926642950206 
          0.0141025897208 0.985897410279 