<?xml version="1.0"?>
<VTKFile type="UnstructuredGrid">
  <UnstructuredGrid>
    <Piece NumberOfCells="400" NumberOfPoints="882">
      <Points>
        <DataArray Name="Coordinates" NumberOfComponents="3" format="ascii" type="Float64">
          0 0 0
          10 0 0
          20 0 0
          30 0 0
          40 0 0
          50 0 0
          60 0 0
          70 0 0
          80 0 0
          90 0 0
          100 0 0
          110 0 0
          120 0 0
          130 0 0
          140 0 0
          150 0 0
          160 0 0
          170 0 0
          180 0 0
          190 0 0
          200 0 0
          0 10 0
          10 10 0
          20 10 0
          30 10 0
          40 10 0
          50 10 0
          60 10 0
          70 10 0
          80 10 0
          90 10 0
          100 10 0
          110 10 0
          120 10 0
          130 10 0
          140 10 0
          150 10 0
          160 10 0
          170 10 0
          180 10 0
          190 10 0
          200 10 0
          0 20 0
          10 20 0
          20 20 0
          30 20 0
          40 20 0
          50 20 0
          60 20 0
          70 20 0
          80 20 0
          90 20 0
          100 20 0
          110 20 0
          120 20 0
          130 20 0
          140 20 0
          150 20 0
          160 20 0
          170 20 0
          180 20 0
          190 20 0
          200 20 0
          0 30 0
          10 30 0
          20 30 0
          30 30 0
          40 30 0
          50 30 0
          60 30 0
          70 30 0
          80 30 0
          90 30 0
          100 30 0
          110 30 0
          120 30 0
          130 30 0
          140 30 0
          150 30 0
          160 30 0
          170 30 0
          180 30 0
          190 30 0
          200 30 0
          0 40 0
          10 40 0
          20 40 0
          30 40 0
          40 40 0
          50 40 0
          60 40 0
          70 40 0
          80 40 0
          90 40 0
          100 40 0
          110 40 0
          120 40 0
          130 40 0
          140 40 0
          150 40 0
          160 40 0
          170 40 0
          180 40 0
          190 40 0
          200 40 0
          0 50 0
          10 50 0
          20 50 0
          30 50 0
          40 50 0
          50 50 0
          60 50 0
          70 50 0
          80 50 0
          90 50 0
          100 50 0
          110 50 0
          120 50 0
          130 50 0
          140 50 0
          150 50 0
          160 50 0
          170 50 0
          180 50 0
          190 50 0
          200 50 0
          0 60 0
          10 60 0
          20 60 0
          30 60 0
          40 60 0
          50 60 0
          60 60 0
          70 60 0
          80 60 0
          90 60 0
          100 60 0
          110 60 0
          120 60 0
          130 60 0
          140 60 0
          150 60 0
          160 60 0
          170 60 0
          180 60 0
          190 60 0
          200 60 0
          0 70 0
          10 70 0
          20 70 0
          30 70 0
          40 70 0
          50 70 0
          60 70 0
          70 70 0
          80 70 0
          90 70 0
          100 70 0
          110 70 0
          120 70 0
          130 70 0
          140 70 0
          150 70 0
          160 70 0
          170 70 0
          180 70 0
          190 70 0
          200 70 0
          0 80 0
          10 80 0
          20 80 0
          30 80 0
          40 80 0
          50 80 0
          60 80 0
          70 80 0
          80 80 0
          90 80 0
          100 80 0
          110 80 0
          120 80 0
          130 80 0
          140 80 0
          150 80 0
          160 80 0
          170 80 0
          180 80 0
          190 80 0
          200 80 0
          0 90 0
          10 90 0
          20 90 0
          30 90 0
          40 90 0
          50 90 0
          60 90 0
          70 90 0
          80 90 0
          90 90 0
          100 90 0
          110 90 0
          120 90 0
          130 90 0
          140 90 0
          150 90 0
          160 90 0
          170 90 0
          180 90 0
          190 90 0
          200 90 0
          0 100 0
          10 100 0
          20 100 0
          30 100 0
          40 100 0
          50 100 0
          60 100 0
          70 100 0
          80 100 0
          90 100 0
          100 100 0
          110 100 0
          120 100 0
          130 100 0
          140 100 0
          150 100 0
          160 100 0
          170 100 0
          180 100 0
          190 100 0
          200 100 0
          0 110 0
          10 110 0
          20 110 0
          30 110 0
          40 110 0
          50 110 0
          60 110 0
          70 110 0
          80 110 0
          90 110 0
          100 110 0
          110 110 0
          120 110 0
          130 110 0
          140 110 0
          150 110 0
          160 110 0
          170 110 0
          180 110 0
          190 110 0
          200 110 0
          0 120 0
          10 120 0
          20 120 0
          30 120 0
          40 120 0
          50 120 0
          60 120 0
          70 120 0
          80 120 0
          90 120 0
          100 120 0
          110 120 0
          120 120 0
          130 120 0
          140 120 0
          150 120 0
          160 120 0
          170 120 0
          180 120 0
          190 120 0
          200 120 0
          0 130 0
          10 130 0
          20 130 0
          30 130 0
          40 130 0
          50 130 0
          60 130 0
          70 130 0
          80 130 0
          90 130 0
          100 130 0
          110 130 0
          120 130 0
          130 130 0
          140 130 0
          150 130 0
          160 130 0
          170 130 0
          180 130 0
          190 130 0
          200 130 0
          0 140 0
          10 140 0
          20 140 0
          30 140 0
          40 140 0
          50 140 0
          60 140 0
          70 140 0
          80 140 0
          90 140 0
          100 140 0
          110 140 0
          120 140 0
          130 140 0
          140 140 0
          150 140 0
          160 140 0
          170 140 0
          180 140 0
          190 140 0
          200 140 0
          0 150 0
          10 150 0
          20 150 0
          30 150 0
          40 150 0
          50 150 0
          60 150 0
          70 150 0
          80 150 0
          90 150 0
          100 150 0
          110 150 0
          120 150 0
          130 150 0
          140 150 0
          150 150 0
          160 150 0
          170 150 0
          180 150 0
          190 150 0
          200 150 0
          0 160 0
          10 160 0
          20 160 0
          30 160 0
          40 160 0
          50 160 0
          60 160 0
          70 160 0
          80 160 0
          90 160 0
          100 160 0
          110 160 0
          120 160 0
          130 160 0
          140 160 0
          150 160 0
          160 160 0
          170 160 0
          180 160 0
          190 160 0
          200 160 0
          0 170 0
          10 170 0
          20 170 0
          30 170 0
          40 170 0
          50 170 0
          60 170 0
          70 170 0
          80 170 0
          90 170 0
          100 170 0
          110 170 0
          120 170 0
          130 170 0
          140 170 0
          150 170 0
          160 170 0
          170 170 0
          180 170 0
          190 170 0
          200 170 0
          0 180 0
          10 180 0
          20 180 0
          30 180 0
          40 180 0
          50 180 0
          60 180 0
          70 180 0
          80 180 0
          90 180 0
          100 180 0
          110 180 0
          120 180 0
          130 180 0
          140 180 0
          150 180 0
          160 180 0
          170 180 0
          180 180 0
          190 180 0
          200 180 0
          0 190 0
          10 190 0
          20 190 0
          30 190 0
          40 190 0
          50 190 0
          60 190 0
          70 190 0
          80 190 0
          90 190 0
          100 190 0
          110 190 0
          120 190 0
          130 190 0
          140 190 0
          150 190 0
          160 190 0
          170 190 0
          180 190 0
          190 190 0
          200 190 0
          0 200 0
          10 200 0
          20 200 0
          30 200 0
          40 200 0
          50 200 0
          60 200 0
          70 200 0
          80 200 0
          90 200 0
          100 200 0
          110 200 0
          120 200 0
          130 200 0
          140 200 0
          150 200 0
          160 200 0
          170 200 0
          180 200 0
          190 200 0
          200 200 0
          0 0 10
          10 0 10
          20 0 10
          30 0 10
          40 0 10
          50 0 10
          60 0 10
          70 0 10
          80 0 10
          90 0 10
          100 0 10
          110 0 10
          120 0 10
          130 0 10
          140 0 10
          150 0 10
          160 0 10
          170 0 10
          180 0 10
          190 0 10
          200 0 10
          0 10 10
          10 10 10
          20 10 10
          30 10 10
          40 10 10
          50 10 10
          60 10 10
          70 10 10
          80 10 10
          90 10 10
          100 10 10
          110 10 10
          120 10 10
          130 10 10
          140 10 10
          150 10 10
          160 10 10
          170 10 10
          180 10 10
          190 10 10
          200 10 10
          0 20 10
          10 20 10
          20 20 10
          30 20 10
          40 20 10
          50 20 10
          60 20 10
          70 20 10
          80 20 10
          90 20 10
          100 20 10
          110 20 10
          120 20 10
          130 20 10
          140 20 10
          150 20 10
          160 20 10
          170 20 10
          180 20 10
          190 20 10
          200 20 10
          0 30 10
          10 30 10
          20 30 10
          30 30 10
          40 30 10
          50 30 10
          60 30 10
          70 30 10
          80 30 10
          90 30 10
[...]
      <CellData Scalars="saturation">
        <DataArray Name="pressure" NumberOfComponents="1" format="ascii" type="Float64">
          -5.54175647432e-06 -5188095303.61 -8400663298.6 -10694791058.4 -12493153924.2 
          -13989918707.6 -15285436656.4 -16436507834.4 -17477451361.6 -18429934733.7 
          -19308018210 -20120983382.9 -20875068161.4 -21574613056.8 -22222647852.7 
          -22819392600.7 -23348406374.9 -23738054690.4 -23947705264.1 -24032478114.1 
          -5188095303.61 -7273591773.45 -9406487090.64 -11264527522.8 -12859599551.5 
          -14249260894.4 -15482726036.1 -16595289023 -17611211903.4 -18547008553 
          -19413889098.8 -20219458598 -20968922611.7 -21665970040 -22313207500 
          -22910425743.6 -23439659716.9 -23826508623.1 -24031949132.8 -24115456962.9 
          -8400663298.6 -9406487090.64 -10769076504.4 -12168954107.4 -13495216588.8 
          -14722269199 -15853344715 -16899063886.7 -17870177429.6 -18775514434.9 
          -19621724400.6 -20413593190.5 -21154522765.1 -21847018160.9 -22492860234.8 
          -23090909208.5 -23620171314.4 -24001496576.9 -24199209033.2 -24280417986.7 
          -10694791058.4 -11264527522.8 -12168954107.4 -13214426207.9 -14291159729.2 
          -15346998724.2 -16360567221 -17324970806.3 -18239419998.5 -19105277726.6 
          -19924331902.8 -20698148546.2 -21427954314.4 -22114751019.8 -22759187303.1 
          -23358669644 -23887439432.7 -24260171182.7 -24447207002.8 -24525434107.2 
          -12493153924.2 -12859599551.5 -13495216588.8 -14291159729.2 -15165725057.4 
          -16067366765 -16966513758.8 -17847156803.2 -18700916798.6 -19523428174.7 
          -20312311515 -21066130588.2 -21783940483.4 -22465140024 -23109040092.5 
          -23710985800 -24238247141.1 -24598676641.8 -24772986073.8 -24847906915.1 
          -13989918707.6 -14249260894.4 -14722269199 -15346998724.2 -16067366765 
          -16840952503.5 -17638579489.7 -18441144002.3 -19236345380.1 -20016167594.2 
          -20775184389.6 -21509529225.1 -22216345224 -22893491219.4 -23538787164.9 
          -24144692260.8 -24668638914.1 -25012259322.5 -25173209324.6 -25244852080.7 
          -15285436656.4 -15482726036.1 -15853344715 -16360567221 -16966513758.8 
          -17638579489.7 -18351332401 -19085957719.7 -19828833505.9 -20570067415.7 
          -21302317951.2 -22019972145 -22718639834.2 -23394781826.5 -24044541484.6 
          -24656257143.1 -25174007874.5 -25495762138.9 -25644467020.5 -25713215900.6 
          -16436507834.4 -16595289023 -16899063886.7 -17324970806.3 -17847156803.2 
          -18441144002.3 -19085957719.7 -19764613734 -20463728658.2 -21172810019.8 
          -21883540947 -22589203216.3 -23284262193.9 -23963912760.3 -24622278049.7 
          -25241652912.8 -25749101420.9 -26044496493.8 -26183623567.7 -26250233807.4 
          -17477451361.6 -17611211903.4 -17870177429.6 -18239419998.5 -18700916798.6 
          -19236345380.1 -19828833505.9 -20463728658.2 -21128697789.7 -21813470824.3 
          -22509455792.3 -23209358521.7 -23906827310.8 -24595818076.7 -25267728231.5 
          -25895820734.5 -26387678167.9 -26654899146.9 -26788141906 -26853828098.7 
          -18429934733.7 -18547008553 -18775514434.9 -19105277726.6 -19523428174.7 
          -20016167594.2 -20570067415.7 -21172810019.8 -21813470824.3 -22482495279.6 
          -23171509097.7 -23873046742.9 -24580158032.4 -25285361892.6 -25975944397.5 
          -26611788778.3 -27081932448.2 -27324302449.3 -27456363329.3 -27523098250 
          -19308018210 -19413889098.8 -19621724400.6 -19924331902.8 -20312311515 
          -20775184389.6 -21302317951.2 -21883540947 -22509455792.3 -23171509097.7 
          -23861884524.3 -24573231549 -25298062250.5 -26026861147 -26740335972.8 
          -27379743063.8 -27822796714.6 -28050484465.9 -28188008311.3 -28259100602.6 
          -20120983382.9 -20219458598 -20413593190.5 -20698148546.2 -21066130588.2 
          -21509529225.1 -22019972145 -22589203216.3 -23209358521.7 -23873046742.9 
          -24573231549 -25302827924.2 -26053602987.1 -26812731137.8 -27550538617.6 
          -28186172583.2 -28602105643.4 -28832085421.2 -28985213442.4 -29066194620.7 
          -20875068161.4 -20968922611.7 -21154522765.1 -21427954314.4 -21783940483.4 
          -22216345224 -22718639834.2 -23284262193.9 -23906827310.8 -24580158032.4 
          -25298062250.5 -26053602987.1 -26837050541.5 -27629927901.4 -28387871506.6 
          -29012146115.1 -29413407963.2 -29669298024.9 -29854177894 -29954269681 
          -21574613056.8 -21665970040 -21847018160.9 -22114751019.8 -22465140024 
          -22893491219.4 -23394781826.5 -23963912760.3 -24595818076.7 -25285361892.6 
          -26026861147 -26812731137.8 -27629927901.4 -28451173296.8 -29217179008.3 
          -29830002891.2 -30248406069.7 -30564615599.4 -30807755889.4 -30942436498.6 
          -22222647852.7 -22313207500 -22492860234.8 -22759187303.1 -23109040092.5 
          -23538787164.9 -24044541484.6 -24622278049.7 -25267728231.5 -25975944397.5 
          -26740335972.8 -27550538617.6 -28387871506.6 -29217179008.3 -29978407245.1 
          -30602962304.5 -31096146826.8 -31525523518.2 -31869726171.8 -32065283920.7 
          -22819392600.7 -22910425743.6 -23090909208.5 -23358669644 -23710985800 
          -24144692260.8 -24656257143.1 -25241652912.8 -25895820734.5 -26611788778.3 
          -27379743063.8 -28186172583.2 -29012146115.1 -29830002891.2 -30602962304.5 
          -31303816255.1 -31954411496.8 -32568740075.6 -33080331050.6 -33383689091.6 
          -23348406374.9 -23439659716.9 -23620171314.4 -23887439432.7 -24238247141.1 
          -24668638914.1 -25174007874.5 -25749101420.9 -26387678167.9 -27081932448.2 
          -27822796714.6 -28602105643.4 -29413407963.2 -30248406069.7 -31096146826.8 
          -31954411496.8 -32834576297.2 -33714482869.9 -34499168813.9 -35005452303.6 
          -23738054690.4 -23826508623.1 -24001496576.9 -24260171182.7 -24598676641.8 
          -25012259322.5 -25495762138.9 -26044496493.8 -26654899146.9 -27324302449.3 
          -28050484465.9 -28832085421.2 -29669298024.9 -30564615599.4 -31525523518.2 
          -32568740075.6 -33714482869.9 -34955445950.7 -36196409031.5 -37133499005.2 
          -23947705264.1 -24031949132.8 -24199209033.2 -24447207002.8 -24772986073.8 
          -25173209324.6 -25644467020.5 -26183623567.7 -26788141906 -27456363329.3 
          -28188008311.3 -28985213442.4 -29854177894 -30807755889.4 -31869726171.8 
          -33080331050.6 -34499168813.9 -36196409031.5 -38197522356 -40198635680.6 
          -24032478114.1 -24115456962.9 -24280417986.7 -24525434107.2 -24847906915.1 
          -25244852080.7 -25713215900.6 -26250233807.4 -26853828098.7 -27523098250 
          -28259100602.6 -29066194620.7 -29954269681 -30942436498.6 -32065283920.7 
          -33383689091.6 -35005452303.6 -37133499005.2 -40198635680.6 -45264885680.6 
        </DataArray>
        <DataArray Name="saturation" NumberOfComponents="2" format="ascii" type="Float64">
          0.993525580403 0.00647441959664 
          0.985093482507 0.0149065174926 
          0.973314368309 0.0266856316911 
          0.958679223214 0.0413207767861 
          0.941841611622 0.0581583883781 
          0.923347907793 0.0766520922071 
          0.903579683115 0.096420316885 
          0.882757279892 0.117242720108 
          0.860949623219 0.139050376781 
          0.838072235126 0.161927764874 
          0.813859882672 0.186140117328 
          0.787792143109 0.212207856891 
          0.758922647346 0.241077352654 
          0.725485255167 0.274514744833 
          0.683919731718 0.316080268282 
          0.626186285094 0.373813714906 
          0.531550762208 0.468449237792 
          0.34702401748 0.65297598252 
          0.0806614298025 0.919338570198 
          0.00114375329336 0.998856246707 
          0.985093482507 0.0149065174926 
          0.97622258711 0.0237774128902 
          0.964541102573 0.0354588974271 
          0.950360932623 0.0496390673774 
          0.934124269951 0.0658757300486 
          0.916256785005 0.0837432149949 
          0.897087993788 0.102912006212 
          0.87682006485 0.12317993515 
          0.855517646616 0.144482353384 
          0.833096288508 0.166903711492 
          0.809290435741 0.190709564259 
          0.783575541566 0.216424458434 
          0.754992595987 0.245007404013 
          0.721744332388 0.278255667612 
          0.680194331587 0.319805668413 
          0.622100215016 0.377899784984 
          0.52614149023 0.47385850977 
          0.338316810849 0.661683189151 
          0.0742451175815 0.925754882419 
          0.000939149152987 0.999060850847 
          0.973314368309 0.0266856316911 
          0.964541102573 0.0354588974271 
          0.953134142047 0.0468658579533 
          0.939460160994 0.0605398390058 
          0.923886113744 0.076113886256 
          0.906751656913 0.0932483430874 
          0.888324906203 0.111675093797 
          0.86877221456 0.13122778544 
          0.84813975334 0.15186024666 
          0.826333295166 0.173666704834 
          0.803079633653 0.196920366347 
          0.777842689616 0.222157310384 
          0.749639795009 0.250360204991 
          0.71662118622 0.28337881378 
          0.675025001985 0.324974998015 
          0.616274800064 0.383725199936 
          0.518077723598 0.481922276402 
          0.324781574977 0.675218425023 
          0.0646602427768 0.935339757223 
          0.000675894290645 0.999324105709 
          0.958679223214 0.0413207767861 
          0.950360932623 0.0496390673774 
          0.939460160994 0.0605398390058 
          0.926418456998 0.0735815430021 
          0.91158766616 0.0884123338401 
          0.89526143225 0.10473856775 
          0.877662095147 0.122337904853 
          0.85892148 0.14107852 
          0.839062630909 0.160937369091 
          0.817975208147 0.182024791853 
          0.795371267607 0.204628732393 
          0.77069454995 0.22930545005 
          0.742925563298 0.257074436702 
          0.710137206168 0.289862793832 
          0.668386467611 0.331613532389 
          0.608617241742 0.391382758258 
          0.507153226651 0.492846773349 
          0.306260512011 0.693739487989 
          0.053025123288 0.946974876712 
          0.000425041665023 0.999574958335 
          0.941841611622 0.0581583883781 
          0.934124269951 0.0658757300486 
          0.923886113744 0.0761138862561 
          0.91158766616 0.0884123338401 
          0.897574139906 0.102425860094 
          0.882112751869 0.117887248131 
          0.865394221374 0.134605778626 
          0.847522326884 0.152477673116 
          0.828497525158 0.171502474842 
          0.808190402429 0.191809597571 
          0.78629267633 0.21370732367 
          0.762219175992 0.237780824008 
          0.734899008731 0.265100991269 
          0.702299334626 0.297700665374 
          0.66023163198 0.33976836802 
          0.598992613518 0.401007386482 
          0.493066696269 0.506933303731 
          0.282540060928 0.717459939072 
          0.0406467944085 0.959353205591 
          0.000231873116201 0.999768126884 
          0.923347907793 0.076652092207 
          0.916256785005 0.0837432149949 
          0.906751656913 0.0932483430874 
          0.89526143225 0.10473856775 
          0.882112751869 0.117887248131 
          0.86755062058 0.13244937942 
          0.851741503036 0.148258496964 
          0.834766155876 0.165233844124 
          0.816604010247 0.183395989753 
          0.797104906049 0.202895093951 
          0.775935601317 0.224064398683 
          0.752473229359 0.247526770641 
          0.725579425053 0.274420574947 
          0.69308316154 0.30691683846 
          0.650475406863 0.349524593137 
          0.587210084681 0.412789915319 
          0.475422466067 0.524577533933 
          0.253528474458 0.746471525542 
          0.0288929429674 0.971107057033 
          0.00010884591229 0.999891154088 
          0.903579683115 0.096420316885 
          0.897087993788 0.102912006212 
          0.888324906203 0.111675093797 
          0.877662095147 0.122337904853 
          0.865394221374 0.134605778626 
          0.851741503036 0.148258496964 
          0.836848021488 0.163151978512 
          0.820773610445 0.179226389555 
          0.803477309666 0.196522690334 
          0.784786453149 0.215213546851 
          0.764338162048 0.235661837952 
          0.741462761795 0.258537238205 
          0.714936492614 0.285063507386 
          0.682412783593 0.317587216407 
          0.638974623664 0.361025376336 
          0.573003508567 0.426996491433 
          0.453734859292 0.546265140708 
          0.219542284825 0.780457715175 
          0.0189081247531 0.981091875247 
          4.36842321155e-05 0.999956315768 
          0.882757279892 0.117242720108 
          0.87682006485 0.12317993515 
          0.86877221456 0.13122778544 
          0.85892148 0.14107852 
          0.847522326884 0.152477673116 
          0.834766155876 0.165233844124 
          0.820773610445 0.179226389555 
          0.80558348722 0.19441651278 
          0.789133583966 0.210866416034 
          0.771226358649 0.228773641351 
          0.751464029228 0.248535970772 
          0.72911993756 0.27088006244 
          0.70286492419 0.29713507581 
          0.67013370738 0.32986629262 
          0.625498804801 0.374501195199 
          0.55600505306 0.44399494694 
          0.427480218174 0.572519781826 
          0.181733164939 0.818266835061 
          0.0113234223134 0.988676577687 
          1.49203692635e-05 0.999985079631 
          0.860949623219 0.139050376781 
          0.855517646616 0.144482353384 
          0.84813975334 0.15186024666 
          0.839062630909 0.160937369091 
          0.828497525158 0.171502474842 
          0.816604010247 0.183395989753 
          0.803477309666 0.196522690334 
          0.789133583966 0.210866416034 
          0.773487511137 0.226512488863 
          0.756313256395 0.243686743605 
          0.737172230135 0.262827769865 
          0.715269524601 0.284730475399 
          0.689147919685 0.310852080315 
          0.65597490144 0.34402509856 
          0.6096975288 0.3903024712 
          0.535746767874 0.464253232126 
          0.396233619847 0.603766380153 
          0.142436693733 0.857563306267 
          0.00617967789386 0.993820322106 
          4.3332647734e-06 0.999995666735 
          0.838072235126 0.161927764874 
          0.833096288508 0.166903711492 
          0.826333295166 0.173666704834 
          0.817975208147 0.182024791853 
          0.808190402429 0.191809597571 
          0.797104906049 0.202895093951 
          0.784786453149 0.215213546851 
          0.771226358649 0.228773641351 
          0.756313256395 0.243686743605 
          0.739789023628 0.260210976372 
          0.721167312559 0.278832687441 
          0.699572701634 0.300427298366 
          0.673396171232 0.326603828768 
          0.639486190143 0.360513809857 
          0.591046995788 0.408953004212 
          0.511644900586 0.488355099414 
          0.359754073566 0.640245926434 
          0.105139242822 0.894860757178 
          0.00309629239479 0.996903707605 
          1.09765345438e-06 0.999998902347 
          0.813859882672 0.186140117328 
          0.809290435741 0.190709564259 
          0.803079633653 0.196920366347 
          0.795371267607 0.204628732393 
          0.78629267633 0.21370732367 
          0.775935601317 0.224064398683 
          0.764338162048 0.235661837952 
          0.751464029228 0.248535970772 
          0.737172230135 0.262827769865 
          0.721167312559 0.278832687441 
          0.702907879212 0.297092120788 
          0.681425727461 0.318574272539 
          0.654936127947 0.345063872053 
          0.619921846193 0.380078153807 
          0.568742596411 0.431257403589 
          0.482936625095 0.517063374905 
          0.318222622695 0.681777377305 
          0.0737679825417 0.926232017458 
          0.0014867532305 0.998513246769 
          2.68871254039e-07 0.999999731129 
          0.787792143109 0.212207856891 
          0.783575541566 0.216424458434 
          0.777842689616 0.222157310384 
          0.77069454995 0.22930545005 
          0.762219175992 0.237780824008 
          0.752473229359 0.247526770641 
          0.741462761795 0.258537238205 
          0.72911993756 0.27088006244 
          0.715269524601 0.284730475399 
          0.699572701634 0.300427298366 
          0.681425727461 0.318574272539 
          0.659756477453 0.340243522547 
          0.632590530307 0.367409469693 
          0.596016450169 0.403983549831 
          0.541515536766 0.458484463234 
          0.448707324067 0.551292675933 
          0.272868456779 0.727131543221 
          0.0507012184117 0.949298781588 
          0.000744752230468 0.99925524777 
          7.67618520969e-08 0.999999923238 
          0.758922647346 0.241077352654 
          0.754992595987 0.245007404013 
          0.749639795009 0.250360204991 
          0.742925563298 0.257074436702 
          0.734899008731 0.265100991269 
          0.725579425053 0.274420574947 
          0.714936492614 0.285063507386 
          0.70286492419 0.29713507581 
          0.689147919685 0.310852080315 
          0.673396171232 0.326603828768 
          0.654936127947 0.345063872053 
          0.632590530307 0.367409469693 
          0.60419874386 0.39580125614 
          0.565497050915 0.434502949085 
          0.50722574693 0.49277425307 
          0.407727685115 0.592272314885 
          0.225906725081 0.774093274919 
          0.0352652455877 0.964734754412 
          0.000421149160376 0.99957885084 
          2.95051514609e-08 0.999999970495 
          0.725485255167 0.274514744833 
          0.721744332388 0.278255667612 
          0.71662118622 0.28337881378 
          0.710137206168 0.289862793832 
          0.702299334626 0.297700665374 
          0.69308316154 0.30691683846 
          0.682412783593 0.317587216407 
          0.67013370738 0.32986629262 
          0.65597490144 0.34402509856 
          0.639486190143 0.360513809857 
          0.619921846193 0.380078153807 
          0.596016450169 0.403983549831 
          0.565497050915 0.434502949085 
          0.523931385285 0.476068614715 
          0.461822014488 0.538177985512 
          0.357787196735 0.642212803265 
          0.179533241572 0.820466758428 
          0.0250692415926 0.974930758407 
          0.000274082269076 0.999725917731 
          1.65227967974e-08 0.999999983477 
          0.683919731718 0.316080268282 
          0.680194331587 0.319805668413 
          0.675025001985 0.324974998015 
          0.668386467611 0.331613532389 
          0.66023163198 0.33976836802 
          0.650475406863 0.349524593137 
          0.638974623664 0.361025376336 
          0.625498804801 0.374501195199 
          0.6096975288 0.3903024712 
          0.591046995788 0.408953004212 
          0.568742596411 0.431257403589 
          0.541515536766 0.458484463234 
          0.50722574693 0.49277425307 
          0.461822014488 0.538177985512 
          0.39680843367 0.60319156633 
          0.293614617426 0.706385382574 
          0.13375169956 0.86624830044 
          0.0173243067193 0.982675693281 
          0.000182439595981 0.999817560404 
          1.03392640005e-08 0.999999989661 
          0.626186285094 0.373813714906 
          0.622100215016 0.377899784984 
          0.616274800064 0.383725199936 
          0.608617241742 0.391382758258 
          0.598992613518 0.401007386482 
          0.587210084681 0.412789915319 
          0.573003508567 0.426996491433 
          0.55600505306 0.44399494694 
          0.535746767874 0.464253232126 
          0.511644900586 0.488355099414 
          0.482936625095 0.517063374905 
          0.448707324067 0.551292675933 
          0.407727685115 0.592272314885 
          0.357787196735 0.642212803265 
          0.293614617426 0.706385382574 
          0.203024887213 0.796975112787 