<?xml version="1.0"?>
<VTKFile type="UnstructuredGrid">
  <UnstructuredGrid>
    <Piece NumberOfCells="400" NumberOfPoints="882">
      <Points>
        <DataArray Name="Coordinates" NumberOfComponents="3" format="ascii" type="Float64">
          0 0 0
          10 0 0
          20 0 0
          30 0 0
          40 0 0
          50 0 0
          60 0 0
          70 0 0
          80 0 0
          90 0 0
          100 0 0
          110 0 0
          120 0 0
          130 0 0
          140 0 0
          150 0 0
          160 0 0
          170 0 0
          180 0 0
          190 0 0
          200 0 0
          0 10 0
          10 10 0
          20 10 0
          30 10 0
          40 10 0
          50 10 0
          60 10 0
          70 10 0
          80 10 0
          90 10 0
          100 10 0
          110 10 0
          120 10 0
          130 10 0
          140 10 0
          150 10 0
          160 10 0
          170 10 0
          180 10 0
          190 10 0
          200 10 0
          0 20 0
          10 20 0
          20 20 0
          30 20 0
          40 20 0
          50 20 0
          60 20 0
          70 20 0
          80 20 0
          90 20 0
          100 20 0
          110 20 0
          120 20 0
          130 20 0
          140 20 0
          150 20 0
          160 20 0
          170 20 0
          180 20 0
          190 20 0
          200 20 0
          0 30 0
          10 30 0
          20 30 0
          30 30 0
          40 30 0
          50 30 0
          60 30 0
          70 30 0
          80 30 0
          90 30 0
          100 30 0
          110 30 0
          120 30 0
          130 30 0
          140 30 0
          150 30 0
          160 30 0
          170 30 0
          180 30 0
          190 30 0
          200 30 0
          0 40 0
          10 40 0
          20 40 0
          30 40 0
          40 40 0
          50 40 0
          60 40 0
          70 40 0
          80 40 0
          90 40 0
          100 40 0
          110 40 0
          120 40 0
          130 40 0
          140 40 0
          150 40 0
          160 40 0
          170 40 0
          180 40 0
          190 40 0
          200 40 0
          0 50 0
          10 50 0
          20 50 0
          30 50 0
          40 50 0
          50 50 0
          60 50 0
          70 50 0
          80 50 0
          90 50 0
          100 50 0
          110 50 0
          120 50 0
          130 50 0
          140 50 0
          150 50 0
          160 50 0
          170 50 0
          180 50 0
          190 50 0
          200 50 0
          0 60 0
          10 60 0
          20 60 0
          30 60 0
          40 60 0
          50 60 0
          60 60 0
          70 60 0
          80 60 0
          90 60 0
          100 60 0
          110 60 0
          120 60 0
          130 60 0
          140 60 0
          150 60 0
          160 60 0
          170 60 0
          180 60 0
          190 60 0
          200 60 0
          0 70 0
          10 70 0
          20 70 0
          30 70 0
          40 70 0
          50 70 0
          60 70 0
          70 70 0
          80 70 0
          90 70 0
          100 70 0
          110 70 0
          120 70 0
          130 70 0
          140 70 0
          150 70 0
          160 70 0
          170 70 0
          180 70 0
          190 70 0
          200 70 0
          0 80 0
          10 80 0
          20 80 0
          30 80 0
          40 80 0
          50 80 0
          60 80 0
          70 80 0
          80 80 0
          90 80 0
          100 80 0
          110 80 0
          120 80 0
          130 80 0
          140 80 0
          150 80 0
          160 80 0
          170 80 0
          180 80 0
          190 80 0
          200 80 0
          0 90 0
          10 90 0
          20 90 0
          30 90 0
          40 90 0
          50 90 0
          60 90 0
          70 90 0
          80 90 0
          90 90 0
          100 90 0
          110 90 0
          120 90 0
          130 90 0
          140 90 0
          150 90 0
          160 90 0
          170 90 0
          180 90 0
          190 90 0
          200 90 0
          0 100 0
          10 100 0
          20 100 0
          30 100 0
          40 100 0
          50 100 0
          60 100 0
          70 100 0
          80 100 0
          90 100 0
          100 100 0
          110 100 0
          120 100 0
          130 100 0
          140 100 0
          150 100 0
          160 100 0
          170 100 0
          180 100 0
          190 100 0
          200 100 0
          0 110 0
          10 110 0
          20 110 0
          30 110 0
          40 110 0
          50 110 0
          60 110 0
          70 110 0
          80 110 0
          90 110 0
          100 110 0
          110 110 0
          120 110 0
          130 110 0
          140 110 0
          150 110 0
          160 110 0
          170 110 0
          180 110 0
          190 110 0
          200 110 0
          0 120 0
          10 120 0
          20 120 0
          30 120 0
          40 120 0
          50 120 0
          60 120 0
          70 120 0
          80 120 0
          90 120 0
          100 120 0
          110 120 0
          120 120 0
          130 120 0
          140 120 0
          150 120 0
          160 120 0
          170 120 0
          180 120 0
          190 120 0
          200 120 0
          0 130 0
          10 130 0
          20 130 0
          30 130 0
          40 130 0
          50 130 0
          60 130 0
          70 130 0
          80 130 0
          90 130 0
          100 130 0
          110 130 0
          120 130 0
          130 130 0
          140 130 0
          150 130 0
          160 130 0
          170 130 0
          180 130 0
          190 130 0
          200 130 0
          0 140 0
          10 140 0
          20 140 0
          30 140 0
          40 140 0
          50 140 0
          60 140 0
          70 140 0
          80 140 0
          90 140 0
          100 140 0
          110 140 0
          120 140 0
          130 140 0
          140 140 0
          150 140 0
          160 140 0
          170 140 0
          180 140 0
          190 140 0
          200 140 0
          0 150 0
          10 150 0
          20 150 0
          30 150 0
          40 150 0
          50 150 0
          60 150 0
          70 150 0
          80 150 0
          90 150 0
          100 150 0
          110 150 0
          120 150 0
          130 150 0
          140 150 0
          150 150 0
          160 150 0
          170 150 0
          180 150 0
          190 150 0
          200 150 0
          0 160 0
          10 160 0
          20 160 0
          30 160 0
          40 160 0
          50 160 0
          60 160 0
          70 160 0
          80 160 0
          90 160 0
          100 160 0
          110 160 0
          120 160 0
          130 160 0
          140 160 0
          150 160 0
          160 160 0
          170 160 0
          180 160 0
          190 160 0
          200 160 0
          0 170 0
          10 170 0
          20 170 0
          30 170 0
          40 170 0
          50 170 0
          60 170 0
          70 170 0
          80 170 0
          90 170 0
          100 170 0
          110 170 0
          120 170 0
          130 170 0
          140 170 0
          150 170 0
          160 170 0
          170 170 0
          180 170 0
          190 170 0
          200 170 0
          0 180 0
          10 180 0
          20 180 0
          30 180 0
          40 180 0
          50 180 0
          60 180 0
          70 180 0
          80 180 0
          90 180 0
          100 180 0
          110 180 0
          120 180 0
          130 180 0
          140 180 0
          150 180 0
          160 180 0
          170 180 0
          180 180 0
          190 180 0
          200 180 0
          0 190 0
          10 190 0
          20 190 0
          30 190 0
          40 190 0
          50 190 0
          60 190 0
          70 190 0
          80 190 0
          90 190 0
          100 190 0
          110 190 0
          120 190 0
          130 190 0
          140 190 0
          150 190 0
          160 190 0
          170 190 0
          180 190 0
          190 190 0
          200 190 0
          0 200 0
          10 200 0
          20 200 0
          30 200 0
          40 200 0
          50 200 0
          60 200 0
          70 200 0
          80 200 0
          90 200 0
          100 200 0
          110 200 0
          120 200 0
          130 200 0
          140 200 0
          150 200 0
          160 200 0
          170 200 0
          180 200 0
          190 200 0
          200 200 0
          0 0 10
          10 0 10
          20 0 10
          30 0 10
          40 0 10
          50 0 10
          60 0 10
          70 0 10
          80 0 10
          90 0 10
          100 0 10
          110 0 10
          120 0 10
          130 0 10
          140 0 10
          150 0 10
          160 0 10
          170 0 10
          180 0 10
          190 0 10
          200 0 10
          0 10 10
          10 10 10
          20 10 10
          30 10 10
          40 10 10
          50 10 10
          60 10 10
          70 10 10
          80 10 10
          90 10 10
          100 10 10
          110 10 10
          120 10 10
          130 10 10
          140 10 10
          150 10 10
          160 10 10
          170 10 10
          180 10 10
          190 10 10
          200 10 10
          0 20 10
          10 20 10
          20 20 10
          30 20 10
          40 20 10
          50 20 10
          60 20 10
          70 20 10
          80 20 10
          90 20 10
          100 20 10
          110 20 10
          120 20 10
          130 20 10
          140 20 10
          150 20 10
          160 20 10
          170 20 10
          180 20 10
          190 20 10
          200 20 10
          0 30 10
          10 30 10
          20 30 10
          30 30 10
          40 30 10
          50 30 10
          60 30 10
          70 30 10
          80 30 10
          90 30 10
[...]
      <CellData Scalars="saturation">
        <DataArray Name="pressure" NumberOfComponents="1" format="ascii" type="Float64">
          -5.35696521695e-05 -5165866511.47 -8352053012.02 -10616433842 -12382220024.2 
          -13843953320.6 -15102212421.5 -16213883824.7 -17213234065.7 -18121735018.2 
          -18953094876.7 -19716059459.3 -20416106366.1 -21056570354.5 -21639466808.5 
          -22166016271 -22635676156.1 -23033926556.2 -23298866994 -23408397047.5 
          -5165866511.47 -7236646566.31 -9346986152.98 -11177497840 -12741456830.3 
          -14097163182 -15294228827.7 -16368118513.7 -17343085372.5 -18235469744 
          -19056137897.2 -19812155716.7 -20507952512.7 -21146181686.1 -21728407776 
          -22255555170.7 -22726822199.6 -23126754390 -23391714909.8 -23499863007.5 
          -8352053012.02 -9346986152.98 -10690673393.7 -12065941596.9 -13363392281.3 
          -14558357267.3 -15654606849.9 -16663024089.1 -17594406778.8 -18457441291.7 
          -19258444357.5 -20001655526.1 -20689674213.7 -21323927631.5 -21905141455.1 
          -22433654054.2 -22908099348 -23311217331.3 -23576272731.7 -23682045766.8 
          -10616433842 -11177497840 -12065941596.9 -13089684637.2 -14140218141.1 
          -15166292555.6 -16147112517.1 -17076096033.1 -17952539899.3 -18777687611.4 
          -19552999882.1 -20279482455.1 -20957524701 -21587004572.2 -22167540731.8 
          -22698652220 -23178109296.6 -23585897842.1 -23850994433 -23953623033.3 
          -12382220024.2 -12741456830.3 -13363392281.3 -14140218141.1 -14991215423.6 
          -15865621753.2 -16734411092.2 -17581887633.2 -18399768999.4 -19183576070.8 
          -19930595696.7 -20638807247 -21306385603.9 -21931563122.1 -22512715838.6 
          -23048377849 -23535149755.4 -23949121263.6 -24213961176.2 -24312948555 
          -13843953320.6 -14097163182 -14558357267.3 -15166292555.6 -15865621753.2 
          -16614557802.4 -17384392034.9 -18156298719.1 -18918057059.7 -19661523572.1 
          -20380916746.4 -21071749634.4 -21730235368 -22353038482 -22937264838.8 
          -23480347219.6 -23977359987.3 -24399049485.9 -24663015451.6 -24758279842.4 
          -15102212421.5 -15294228827.7 -15654606849.9 -16147112517.1 -16734411092.2 
          -17384392034.9 -18072000593.1 -18778644149.8 -19490743803.4 -20198248535.2 
          -20893425635.9 -21569994828.5 -22222584507.5 -22846470370.9 -23437525568.8 
          -23991978720.1 -24502905541.9 -24933860210.8 -25196033677.3 -25288048700.9 
          -16213883824.7 -16368118513.7 -16663024089.1 -17076096033.1 -17581887633.2 
          -18156298719.1 -18778644149.8 -19432098266.6 -20103271909.8 -20781470049.1 
          -21457937483 -22125235854 -22776809948.8 -23406762686 -24009792311.5 
          -24580789600.5 -25110157948.2 -25551972339.7 -25811346252.7 -25901201530.7 
          -17213234065.7 -17343085372.5 -17594406778.8 -17952539899.3 -18399768999.4 
          -18918057059.7 -19490743803.4 -20103271909.8 -20743248428.8 -21400149481.3 
          -22064892438.1 -22729416063 -23386353508.3 -24028847005.3 -24650461035.1 
          -25244531522 -25797807210.4 -26252243547.2 -26508234729.4 -26597596546.7 
          -18121735018.2 -18235469744 -18457441291.7 -18777687611.4 -19183576070.8 
          -19661523572.1 -20198248535.2 -20781470049.1 -21400149481.3 -22044426259.7 
          -22705388313.2 -23374786285.8 -24044773251.8 -24707724119.2 -25356067610.4 
          -25981220052.7 -26564851174.8 -27034058687.3 -27287368335.4 -27378420749 
          -18953094876.7 -19056137897.2 -19258444357.5 -19552999882.1 -19930595696.7 
          -20380916746.4 -20893425635.9 -21457937483 -22064892438.1 -22705388313.2 
          -23371050189.1 -24053808561.4 -24745647703.5 -25438360688.8 -26123182909.1 
          -26789022852.7 -27410454545.9 -27897366432.1 -28151081063.4 -28246636182.1 
          -19716059459.3 -19812155716.7 -20001655526.1 -20279482455.1 -20638807247 
          -21071749634.4 -21569994828.5 -22125235854 -22729416063 -23374786285.8 
          -24053808561.4 -24758940939.4 -25482330026.7 -26215401141.7 -26948095431.7 
          -27665937276.7 -28333743153.1 -28842908720.2 -29103611235 -29207618500.1 
          -20416106366.1 -20507952512.7 -20689674213.7 -20957524701 -21306385603.9 
          -21730235368 -22222584507.5 -22776809948.8 -23386353508.3 -24044773251.8 
          -24745647703.5 -25482330026.7 -26247526452.3 -27032595770.4 -27826098821.9 
          -28609044498.4 -29333472907.2 -29872714141.6 -30151703334 -30270348940.2 
          -21056570354.5 -21146181686.1 -21323927631.5 -21587004572.2 -21931563122.1 
          -22353038482 -22846470370.9 -23406762686 -24028847005.3 -24707724119.2 
          -25438360688.8 -26215401141.7 -27032595770.4 -27881686352.2 -28749919718.2 
          -29612713895.9 -30406948695.8 -30990513847.3 -31305909973.5 -31449688344.8 
          -21639466808.5 -21728407776 -21905141455.1 -22167540731.8 -22512715838.6 
          -22937264838.8 -23437525568.8 -24009792311.5 -24650461035.1 -25356067610.4 
          -26123182909.1 -26948095431.7 -27826098821.9 -28749919718.2 -29705970742.9 
          -30664027264.8 -31546441758.5 -32200929026.5 -32582517272.8 -32770642756 
          -22166016271 -22255555170.7 -22433654054.2 -22698652220 -23048377849 
          -23480347219.6 -23991978720.1 -24580789600.5 -25244531522 -25981220052.7 
          -26789022852.7 -27665937276.7 -28609044498.4 -29612713895.9 -30664027264.8 
          -31730466284.2 -32727883354.1 -33502857325.4 -34005173326.6 -34276875959.9 
          -22635676156.1 -22726822199.6 -22908099348 -23178109296.6 -23535149755.4 
          -23977359987.3 -24502905541.9 -25110157948.2 -25797807210.4 -26564851174.8 
          -27410454545.9 -28333743153.1 -29333472907.2 -30406948695.8 -31546441758.5 
          -32727883354.1 -33880069309.7 -34864167627.9 -35599739457.7 -36049967593.4 
          -23033926556.2 -23126754390 -23311217331.3 -23585897842.1 -23949121263.6 
          -24399049485.9 -24933860210.8 -25551972339.7 -26252243547.2 -27034058687.3 
          -27897366432.1 -28842908720.2 -29872714141.6 -30990513847.3 -32200929026.5 
          -33502857325.4 -34864167627.9 -36189190879.9 -37381603491.1 -38264143745.8 
          -23298866994 -23391714909.8 -23576272731.7 -23850994433 -24213961176.2 
          -24663015451.6 -25196033677.3 -25811346252.7 -26508234729.4 -27287368335.4 
          -28151081063.4 -29103611235 -30151703334 -31305909973.5 -32582517272.8 
          -34005173326.6 -35599739457.7 -37381603491.1 -39375114599.1 -41353306598.2 
          -23408397047.5 -23499863007.5 -23682045766.8 -23953623033.3 -24312948555 
          -24758279842.4 -25288048700.9 -25901201530.7 -26597596546.7 -27378420749 
          -28246636182.1 -29207618500.1 -30270348940.2 -31449688344.8 -32770642756 
          -34276875959.9 -36049967593.4 -38264143745.8 -41353306598.2 -46419559715.2 
        </DataArray>
        <DataArray Name="saturation" NumberOfComponents="2" format="ascii" type="Float64">
          0.994631721896 0.00536827810372 
          0.987549008179 0.0124509918213 
          0.977527452651 0.0224725473491 
          0.964920904919 0.035079095081 
          0.950253864625 0.0497461353746 
          0.933989340527 0.0660106594734 
          0.916470486328 0.083529513672 
          0.897916958157 0.102083041843 
          0.878430837663 0.121569162337 
          0.857997387552 0.142002612448 
          0.836471987654 0.163528012346 
          0.813541441326 0.186458558674 
          0.788635071364 0.211364928636 
          0.760726058011 0.239273941989 
          0.727863640785 0.272136359215 
          0.685953535221 0.314046464779 
          0.625087155169 0.374912844831 
          0.516719850019 0.483280149981 
          0.284264778576 0.715735221424 
          0.0286692112808 0.971330788719 
          0.987549008179 0.0124509918213 
          0.98003343246 0.0199665675402 
          0.970026267469 0.0299737325307 
          0.957745648695 0.0422543513051 
          0.943543357806 0.0564566421943 
          0.927780462491 0.0722195375092 
          0.910754622638 0.0892453773619 
          0.892668812946 0.107331187054 
          0.87362071058 0.12637928942 
          0.853595607538 0.146404392462 
          0.832449805177 0.167550194823 
          0.809869957835 0.190130042165 
          0.785282353787 0.214717646213 
          0.757651233542 0.242348766458 
          0.7250038811 0.2749961189 
          0.68319071295 0.31680928705 
          0.622146129073 0.377853870927 
          0.512819189535 0.487180810465 
          0.278082391809 0.721917608191 
          0.0266456358864 0.973354364114 
          0.977527452651 0.0224725473491 
          0.970026267469 0.0299737325307 
          0.960177772195 0.0398222278054 
          0.948260538448 0.0517394615518 
          0.934570911829 0.0654290881706 
          0.919400017221 0.0805999827787 
          0.902993458545 0.0970065414545 
          0.885522908549 0.114477091451 
          0.867069576938 0.132930423062 
          0.84761070876 0.15238929124 
          0.826998262866 0.173001737134 
          0.80491480512 0.19508519488 
          0.780779515803 0.219220484197 
          0.75354165208 0.24645834792 
          0.721194814162 0.278805185838 
          0.679506224949 0.320493775051 
          0.618172998402 0.381827001598 
          0.507367503303 0.492632496697 
          0.269069411606 0.730930588394 
          0.0237813469155 0.976218653084 
          0.964920904919 0.035079095081 
          0.957745648695 0.0422543513051 
          0.948260538448 0.0517394615518 
          0.936821612344 0.0631783876556 
          0.923721089629 0.0762789103709 
          0.909215296828 0.090784703172 
          0.893512404828 0.106487595172 
          0.876754868188 0.123245131812 
          0.8590043005 0.1409956995 
          0.840225488529 0.159774511471 
          0.820261689631 0.179738310369 
          0.798787123069 0.201212876931 
          0.775208971849 0.224791028151 
          0.748454354553 0.251545645447 
          0.716469949106 0.283530050894 
          0.674909555819 0.325090444181 
          0.613149170437 0.386850829563 
          0.500315398515 0.499684601485 
          0.257342761196 0.742657238804 
          0.0204191494623 0.979580850538 
          0.950253864625 0.0497461353746 
          0.943543357806 0.0564566421943 
          0.934570911829 0.0654290881706 
          0.923721089629 0.0762789103709 
          0.911288768024 0.0887112319765 
          0.897512635485 0.102487364515 
          0.882576435706 0.117423564294 
          0.866599966922 0.133400033078 
          0.849626958795 0.150373041205 
          0.83160873412 0.16839126588 
          0.812377401132 0.187622598868 
          0.791595389973 0.208404610027 
          0.768653129837 0.231346870163 
          0.742448060081 0.257551939919 
          0.710865635747 0.289134364253 
          0.669413640824 0.330586359176 
          0.607057502286 0.392942497714 
          0.491601744985 0.508398255015 
          0.243036647097 0.756963352903 
          0.0168931046277 0.983106895372 
          0.933989340527 0.0660106594734 
          0.927780462491 0.0722195375092 
          0.919400017221 0.0805999827787 
          0.909215296828 0.090784703172 
          0.897512635485 0.102487364515 
          0.884516664329 0.115483335671 
          0.87039352441 0.12960647559 
          0.855245676257 0.144754323743 
          0.83910172336 0.16089827664 
          0.821900076032 0.178099923968 
          0.803460628372 0.196539371628 
          0.783431518575 0.216568481425 
          0.761182147768 0.238817852232 
          0.735572779761 0.264427220239 
          0.704412702443 0.295587297557 
          0.663028928778 0.336971071222 
          0.599880050208 0.400119949792 
          0.481168056181 0.518831943819 
          0.226391846673 0.773608153327 
          0.0135064275747 0.986493572425 
          0.916470486328 0.083529513672 
          0.910754622638 0.0892453773619 
          0.902993458545 0.0970065414545 
          0.893512404828 0.106487595172 
          0.882576435706 0.117423564294 
          0.87039352441 0.12960647559 
          0.857114185947 0.142885814053 
          0.842826379196 0.157173620804 
          0.827545675916 0.172454324084 
          0.811198416864 0.188801583136 
          0.793591870555 0.206408129445 
          0.774358125609 0.225641874391 
          0.752841863115 0.247158136885 
          0.727858976291 0.272141023709 
          0.69712743616 0.30287256384 
          0.655756894558 0.344243105442 
          0.591596906459 0.408403093541 
          0.468981774615 0.531018225385 
          0.207843592471 0.792156407529 
          0.010496123023 0.989503876977 
          0.897916958157 0.102083041843 
          0.892668812946 0.107331187054 
          0.885522908549 0.114477091451 
          0.876754868188 0.123245131812 
          0.866599966922 0.133400033078 
          0.855245676257 0.144754323743 
          0.842826379196 0.157173620804 
          0.829416480556 0.170583519444 
          0.815019624075 0.184980375925 
          0.799550752516 0.200449247484 
          0.782804393007 0.217195606993 
          0.76439537633 0.23560462367 
          0.743640674576 0.256359325424 
          0.719305227457 0.280694772543 
          0.689000789926 0.310999210074 
          0.647582388299 0.352417611701 
          0.582189964119 0.417810035881 
          0.455074827451 0.544925172549 
          0.18810297385 0.81189702615 
          0.00800522966015 0.99199477034 
          0.878430837663 0.121569162337 
          0.87362071058 0.12637928942 
          0.867069576938 0.132930423062 
          0.8590043005 0.1409956995 
          0.849626958795 0.150373041205 
          0.83910172336 0.16089827664 
          0.827545675916 0.172454324084 
          0.815019624075 0.184980375925 
          0.80151576653 0.19848423347 
          0.786938135811 0.213061864189 
          0.771068725708 0.228931274292 
          0.753504599765 0.246495400235 
          0.733532996076 0.266467003924 
          0.709862626529 0.290137373471 
          0.679985827466 0.320014172534 
          0.638469131924 0.361530868076 
          0.571656581298 0.428343418702 
          0.439593014961 0.560406985039 
          0.168207070525 0.831792929475 
          0.00607940171751 0.993920598282 
          0.857997387552 0.142002612448 
          0.853595607538 0.146404392462 
          0.84761070876 0.15238929124 
          0.840225488529 0.159774511471 
          0.83160873412 0.16839126588 
          0.821900076032 0.178099923968 
          0.811198416864 0.188801583136 
          0.799550752516 0.200449247484 
          0.786938135811 0.213061864189 
          0.773254365639 0.226745634361 
          0.758269675536 0.241730324464 
          0.741563958396 0.258436041604 
          0.72239452234 0.27760547766 
          0.69941124132 0.30058875868 
          0.669978409081 0.330021590919 
          0.628350044195 0.371649955805 
          0.560015083009 0.439984916991 
          0.422853320207 0.577146679793 
          0.149487022519 0.850512977481 
          0.00469205178896 0.995307948211 
          0.836471987654 0.163528012346 
          0.832449805177 0.167550194823 
          0.826998262866 0.173001737134 
          0.820261689631 0.179738310369 
          0.812377401132 0.187622598868 
          0.803460628372 0.196539371628 
          0.793591870555 0.206408129445 
          0.782804393007 0.217195606993 
          0.771068725708 0.228931274292 
          0.758269675536 0.241730324464 
          0.744167646031 0.255832353969 
          0.728327916767 0.271672083233 
          0.709980677846 0.290019322154 
          0.687719557337 0.312280442663 
          0.658781148517 0.341218851483 
          0.61710112852 0.38289887148 
          0.547308182955 0.452691817045 
          0.405428935425 0.594571064575 
          0.133404732495 0.866595267505 
          0.00378643924594 0.996213560754 
          0.813541441326 0.186458558674 
          0.809869957835 0.190130042165 
          0.80491480512 0.19508519488 
          0.798787123069 0.201212876931 
          0.791595389973 0.208404610027 
          0.783431518575 0.216568481425 
          0.774358125609 0.225641874391 
          0.76439537633 0.23560462367 
          0.753504599765 0.246495400235 
          0.741563958396 0.258436041604 
          0.728327916767 0.271672083233 
          0.713352870859 0.286647129141 
          0.695850418363 0.304149581637 
          0.674369542486 0.325630457514 
          0.646036266035 0.353963733965 
          0.604498015574 0.395501984426 
          0.533617601195 0.466382398805 
          0.388200466767 0.611799533233 
          0.12134494336 0.87865505664 
          0.00332114668664 0.996678853313 
          0.788635071364 0.211364928636 
          0.785282353787 0.214717646213 
          0.780779515803 0.219220484197 
          0.775208971849 0.224791028151 
          0.768653129837 0.231346870163 
          0.761182147768 0.238817852232 
          0.752841863115 0.247158136885 
          0.743640674576 0.256359325424 
          0.733532996076 0.266467003924 
          0.72239452234 0.27760547766 
          0.709980677846 0.290019322154 
          0.695850418363 0.304149581637 
          0.679214236718 0.320785763282 
          0.65860497476 0.34139502524 
          0.631085171767 0.368914828233 
          0.590104611203 0.409895388797 
          0.518999395744 0.481000604256 
          0.372293716298 0.627706283702 
          0.114579443758 0.885420556242 
          0.00332472034893 0.996675279651 
          0.760726058011 0.239273941989 
          0.757651233542 0.242348766458 
          0.75354165208 0.24645834792 
          0.748454354553 0.251545645447 
          0.742448060081 0.257551939919 
          0.735572779761 0.264427220239 
          0.727858976291 0.272141023709 
          0.719305227457 0.280694772543 
          0.709862626529 0.290137373471 
          0.69941124132 0.30058875868 
          0.687719557337 0.312280442663 
          0.674369542486 0.325630457514 
          0.65860497476 0.34139502524 
          0.638998830555 0.361001169445 
          0.612647600137 0.387352399863 
          0.57299191608 0.42700808392 
          0.50326329476 0.49673670524 
          0.358944404855 0.641055595145 
          0.114427193481 0.885572806519 
          0.00400347557928 0.995996524421 
          0.727863640785 0.272136359215 
          0.7250038811 0.2749961189 
          0.721194814162 0.278805185838 
          0.716469949106 0.283530050894 
          0.710865635747 0.289134364253 
          0.704412702443 0.295587297557 
          0.69712743616 0.30287256384 
          0.689000789926 0.310999210074 
          0.679985827466 0.320014172534 
          0.669978409081 0.330021590919 
          0.658781148517 0.341218851483 
          0.646036266035 0.353963733965 
          0.631085171767 0.368914828233 
          0.612647600137 0.387352399863 
          0.588038183918 0.411961816082 
          0.551017621003 0.448982378997 
          0.485406518044 0.514593481956 
          0.349071566862 0.650928433138 
          0.122411982757 0.877588017243 
          0.00604833904494 0.993951660955 
          0.685953535221 0.314046464779 
          0.68319071295 0.31680928705 
          0.679506224949 0.320493775051 
          0.674909555819 0.325090444181 
          0.669413640824 0.330586359176 
          0.663028928778 0.336971071222 
          0.655756894558 0.344243105442 
          0.647582388299 0.352417611701 
          0.638469131924 0.361530868076 
          0.628350044195 0.371649955805 
          0.61710112852 0.38289887148 
          0.604498015574 0.395501984426 
          0.590104611203 0.409895388797 
          0.57299191608 0.42700808392 
          0.551017621003 0.448982378997 
          0.518827920397 0.481172079603 
          0.46180915043 0.53819084957 